                         Program Version 4.1.1  - RELEASE  -
|  1> ! IRC Freq PBE0 RIJCOSX D3BJ def2-SVP def2/J PAL8
|  2> % maxcore 4000
|  3> %geom
|  4> calc_hess true
|  5> End
|  6> *xyz 0 2
|  7>   C   -1.19943288913804      0.21204800175962      0.10965122018880
|  8>   C   0.18522292215928     -0.32253128549448      0.26725354199914
|  9>   C   1.34209115410134      0.35006231175658     -0.38298656064507
| 10>   H   -1.38003463610275      1.07662434240213      0.77744719804746
| 11>   H   -1.96401529016285     -0.54571311545597      0.33599411839757
| 12>   H   -1.37439614218275      0.57482293583505     -0.91716421336501
| 13>   H   0.41504748248037     -0.94342938729387      1.13838703245412
| 14>   H   0.80241023067123     -0.76853312104451     -0.78010825473642
| 15>   H   1.15756402368911      1.18034494528057     -1.06843795534161
| 16>   H   2.34206314448508      0.22632437225488      0.03726387300103
| 17>
| 18> *
| 19>
| 20>                          ****END OF INPUT****

CARTESIAN COORDINATES (ANGSTROEM)
---------------------------------
  C     -1.199433    0.212048    0.109651
  C      0.185223   -0.322531    0.267254
  C      1.342091    0.350062   -0.382987
  H     -1.380035    1.076624    0.777447
  H     -1.964015   -0.545713    0.335994
  H     -1.374396    0.574823   -0.917164
  H      0.415047   -0.943429    1.138387
  H      0.802410   -0.768533   -0.780108
  H      1.157564    1.180345   -1.068438
  H      2.342063    0.226324    0.037264

 Total Charge           Charge          ....    0
 Multiplicity           Mult            ....    2
 Number of Electrons    NEL             ....   25
 Basis Dimension        Dim             ....   77

ORBITAL ENERGIES
----------------
                 SPIN UP ORBITALS
  NO   OCC          E(Eh)            E(eV)
   0   1.0000     -10.243945      -278.7519
   1   1.0000     -10.236577      -278.5514
   2   1.0000     -10.229258      -278.3523
   3   1.0000      -0.825127       -22.4529
   4   1.0000      -0.708479       -19.2787
   5   1.0000      -0.577140       -15.7048
   6   1.0000      -0.490004       -13.3337
   7   1.0000      -0.457380       -12.4460
   8   1.0000      -0.425903       -11.5894
   9   1.0000      -0.394408       -10.7324
  10   1.0000      -0.369040       -10.0421
  11   1.0000      -0.331758        -9.0276
  12   1.0000      -0.147281        -4.0077
  13   0.0000       0.070866         1.9284
  14   0.0000       0.105253         2.8641
  15   0.0000       0.111416         3.0318
  16   0.0000       0.119309         3.2466
  17   0.0000       0.152799         4.1579

                 SPIN DOWN ORBITALS
  NO   OCC          E(Eh)            E(eV)
   0   1.0000     -10.234849      -278.5044
   1   1.0000     -10.229740      -278.3654
   2   1.0000     -10.227679      -278.3093
   3   1.0000      -0.806482       -21.9455
   4   1.0000      -0.699553       -19.0358
   5   1.0000      -0.557116       -15.1599
   6   1.0000      -0.477385       -12.9903
   7   1.0000      -0.445968       -12.1354
   8   1.0000      -0.417256       -11.3541
   9   1.0000      -0.389147       -10.5892
  10   1.0000      -0.363913        -9.9026
  11   1.0000      -0.307095        -8.3565
  12   0.0000      -0.006485        -0.1765
  13   0.0000       0.076537         2.0827
  14   0.0000       0.109899         2.9905
  15   0.0000       0.118657         3.2288
  16   0.0000       0.126737         3.4487

MULLIKEN ATOMIC CHARGES AND SPIN POPULATIONS
--------------------------------------------
   0 C :   -0.027588   -0.051349
   1 C :   -0.223663    0.557445
   2 C :   -0.186882    0.593155
   3 H :    0.049218    0.045588
   4 H :    0.048779    0.002458
   5 H :    0.033620    0.009707
   6 H :    0.058636   -0.020967
   7 H :    0.116712   -0.090288
   8 H :    0.063819   -0.024632
   9 H :    0.067349   -0.021115
Sum of atomic charges         :    0.0000000

LOEWDIN ATOMIC CHARGES AND SPIN POPULATIONS
-------------------------------------------
   0 C :   -0.075998   -0.003686
   1 C :   -0.095361    0.451270
   2 C :   -0.121122    0.476522
   3 H :    0.030530    0.035923
   4 H :    0.032848    0.002112
   5 H :    0.031614    0.009195
   6 H :    0.028397    0.007456
   7 H :    0.112650    0.008529
   8 H :    0.027142    0.005268
   9 H :    0.029300    0.007410

  Mayer bond orders larger than 0.1
B(  0-C ,  1-C ) :   1.0828 B(  0-C ,  3-H ) :   0.9544 B(  0-C ,  4-H ) :   0.9691
B(  0-C ,  5-H ) :   0.9629 B(  1-C ,  2-C ) :   1.0204 B(  1-C ,  6-H ) :   0.9609
B(  1-C ,  7-H ) :   0.4986 B(  2-C ,  7-H ) :   0.4992 B(  2-C ,  8-H ) :   0.9691
B(  2-C ,  9-H ) :   0.9678

Dispersion correction           -0.004224315
FINAL SINGLE POINT ENERGY      -118.176839867815
Dispersion correction            ... done

DIPOLE MOMENT
-------------
                                X             Y             Z
Electronic contribution:      0.53823      -0.23337       0.36740
Nuclear contribution   :     -0.60129       0.18941      -0.36280
                        -----------------------------------------
Total Dipole Moment    :     -0.06306      -0.04396       0.00460
                        -----------------------------------------
Magnitude (a.u.)       :      0.07701
Magnitude (Debye)      :      0.19575

Dispersion correction in the Hessian             ... done   (      0.6 sec)

VIBRATIONAL FREQUENCIES
-----------------------

Scaling factor for frequencies =  1.000000000  (already applied!)

   0:         0.00 cm**-1
   1:         0.00 cm**-1
   2:         0.00 cm**-1
   3:         0.00 cm**-1
   4:         0.00 cm**-1
   5:         0.00 cm**-1
   6:     -1898.02 cm**-1 ***imaginary mode***
   7:       203.71 cm**-1
   8:       364.97 cm**-1
   9:       370.06 cm**-1
  10:       692.02 cm**-1
  11:       717.16 cm**-1
  12:       905.82 cm**-1
  13:       928.41 cm**-1
  14:      1024.04 cm**-1
  15:      1160.91 cm**-1
  16:      1198.14 cm**-1
  17:      1257.48 cm**-1
  18:      1348.93 cm**-1
  19:      1401.70 cm**-1
  20:      1421.42 cm**-1
  21:      1452.06 cm**-1
  22:      1465.05 cm**-1
  23:      2264.93 cm**-1
  24:      3010.28 cm**-1
  25:      3091.70 cm**-1
  26:      3147.98 cm**-1
  27:      3162.12 cm**-1
  28:      3194.03 cm**-1
  29:      3290.13 cm**-1

IR SPECTRUM
-----------

 Mode    freq (cm**-1)   T**2         TX         TY         TZ
-------------------------------------------------------------------
   7:       203.71    0.402057  ( -0.598177   0.092071   0.189115)
   8:       364.97    0.735887  ( -0.198701   0.757860   0.349360)
   9:       370.06    2.888199  (  0.817460   1.369043   0.587946)
  10:       692.02   52.832244  ( -0.163052   5.273875   4.999190)
  11:       717.16   49.016844  ( -4.251382   1.655464   5.310558)
  12:       905.82    1.747246  (  0.613406  -0.471393  -1.071806)
  13:       928.41    6.279388  (  0.008448  -2.501597  -0.146042)
  14:      1024.04    8.959074  (  2.276633   1.596725  -1.107469)
  15:      1160.91    0.577332  ( -0.077702  -0.621874   0.429612)
  16:      1198.14    1.314983  ( -0.359448   0.328328   1.038258)
  17:      1257.48   11.209159  ( -1.412661   3.035373   0.007813)
  18:      1348.93    2.218559  ( -0.479301   0.218244   1.393269)
  19:      1401.70    5.545010  ( -1.267586  -1.179657   1.595821)
  20:      1421.42    7.540610  (  2.006566  -0.192559  -1.864732)
  21:      1452.06    8.282272  ( -1.028967  -1.372312  -2.310900)
  22:      1465.05    3.751247  ( -0.285721  -1.470894   1.227225)
  23:      2264.93    3.366457  ( -0.500895  -1.441385  -1.018808)
  24:      3010.28   47.964408  ( -5.617969   3.646158   1.763055)
  25:      3091.70   20.153650  (  1.490423   1.744951   3.858424)
  26:      3147.98   12.822227  (  1.993003   2.503029  -1.607797)
  27:      3162.12    4.198544  (  1.320667   1.068637  -1.145599)
  28:      3194.03    9.923991  (  0.780587  -2.198720   2.116673)
  29:      3290.13    3.143277  (  1.236728  -0.900742   0.895793)

--------------------------
THERMOCHEMISTRY AT 298.15K
--------------------------

Temperature         ... 298.15 K
Pressure            ... 1.00 atm
Total Mass          ... 43.09 AMU

Throughout the following assumptions are being made:
  (1) The electronic state is orbitally nondegenerate
      but the spin degeneracy is treated
  (2) There are no thermally accessible electronically excited states
  (3) Hindered rotations indicated by low frequency modes are not
      treated as such but are treated as vibrations and this may
      cause some error
  (4) All equations used are the standard statistical mechanics
      equations for an ideal gas
  (5) All vibrations are strictly harmonic

freq.     203.71  E(vib)   ...       0.35
freq.     364.97  E(vib)   ...       0.22
freq.     370.06  E(vib)   ...       0.21
freq.     692.02  E(vib)   ...       0.07
freq.     717.16  E(vib)   ...       0.07
freq.     905.82  E(vib)   ...       0.03
freq.     928.41  E(vib)   ...       0.03
freq.    1024.04  E(vib)   ...       0.02
freq.    1160.91  E(vib)   ...       0.01
freq.    1198.14  E(vib)   ...       0.01
freq.    1257.48  E(vib)   ...       0.01
freq.    1348.93  E(vib)   ...       0.01
freq.    1401.70  E(vib)   ...       0.00
freq.    1421.42  E(vib)   ...       0.00
freq.    1452.06  E(vib)   ...       0.00
freq.    1465.05  E(vib)   ...       0.00
freq.    2264.93  E(vib)   ...       0.00
freq.    3010.28  E(vib)   ...       0.00
freq.    3091.70  E(vib)   ...       0.00
freq.    3147.98  E(vib)   ...       0.00
freq.    3162.12  E(vib)   ...       0.00
freq.    3194.03  E(vib)   ...       0.00
freq.    3290.13  E(vib)   ...       0.00

------------
INNER ENERGY
------------

The inner energy is: U= E(el) + E(ZPE) + E(vib) + E(rot) + E(trans)
    E(el)   - is the total energy from the electronic structure calculation
              = E(kin-el) + E(nuc-el) + E(el-el) + E(nuc-nuc)
    E(ZPE)  - the the zero temperature vibrational energy from the frequency calculation
    E(vib)  - the the finite temperature correction to E(ZPE) due to population
              of excited vibrational states
    E(rot)  - is the rotational thermal energy
    E(trans)- is the translational thermal energy

Summary of contributions to the inner energy U:
Electronic energy                ...   -118.17683987 Eh
Zero point energy                ...      0.08445857 Eh      53.00 kcal/mol
Thermal vibrational correction   ...      0.00168146 Eh       1.06 kcal/mol
Thermal rotational correction    ...      0.00141627 Eh       0.89 kcal/mol
Thermal translational correction ...      0.00141627 Eh       0.89 kcal/mol
-----------------------------------------------------------------------
Total thermal energy                   -118.08786729 Eh

Summary of corrections to the electronic energy:
(perhaps to be used in another calculation)
Total thermal correction                  0.00451400 Eh       2.83 kcal/mol
Non-thermal (ZPE) correction              0.08445857 Eh      53.00 kcal/mol
-----------------------------------------------------------------------
Total correction                          0.08897258 Eh      55.83 kcal/mol

--------
ENTHALPY
--------

The enthalpy is H = U + kB*T
                kB is Boltzmann's constant
Total free energy                 ...   -118.08786729 Eh
Thermal Enthalpy correction       ...      0.00094421 Eh       0.59 kcal/mol
-----------------------------------------------------------------------
Total Enthalpy                    ...   -118.08692308 Eh

Note: Rotational entropy computed according to Herzberg
Infrared and Raman Spectra, Chapter V,1, Van Nostrand Reinhold, 1945
Point Group:  C1, Symmetry Number:   1
Rotational constants in cm-1:     1.258757     0.285632     0.253335

Vibrational entropy computed according to the QRRHO of S. Grimme
Chem.Eur.J. 2012 18 9955

-------
ENTROPY
-------

The entropy contributions are T*S = T*(S(el)+S(vib)+S(rot)+S(trans))
     S(el)   - electronic entropy
     S(vib)  - vibrational entropy
     S(rot)  - rotational entropy
     S(trans)- translational entropy
The entropies will be listed as mutliplied by the temperature to get
units of energy

Electronic entropy                ...      0.00065446 Eh      0.41 kcal/mol
Vibrational entropy               ...      0.00258686 Eh      1.62 kcal/mol
Rotational entropy                ...      0.01064192 Eh      6.68 kcal/mol
Translational entropy             ...      0.01767888 Eh     11.09 kcal/mol
-----------------------------------------------------------------------
Final entropy term                ...      0.03156212 Eh     19.81 kcal/mol

-------------------
GIBBS FREE ENTHALPY
-------------------

The Gibbs free enthalpy is G = H - T*S

Total enthalpy                    ...   -118.08692308 Eh
Total entropy correction          ...     -0.03156212 Eh    -19.81 kcal/mol
-----------------------------------------------------------------------
Final Gibbs free enthalpy         ...   -118.11848520 Eh

For completeness - the Gibbs free enthalpy minus the electronic energy
G-E(el)                           ...      0.05835467 Eh     36.62 kcal/mol

                      ***********************HURRAY********************
                             ****ORCA TERMINATED NORMALLY****
TOTAL RUN TIME: 0 days 0 hours 13 minutes 47 seconds 818 msec
