                         Program Version 4.2.1 -  RELEASE  -
|  1> ! Opt Freq PBE0 D3BJ def2-SVP RIJCOSX def2/J PAL8
|  2> %maxcore 4000
|  3> *xyz 0 1
|  4> O          0.78510        3.05520        1.01990
|  5> C          0.85940        4.27980        1.00990
|  6> C          2.16300        4.96860        1.12090
|  7> H          3.06660        4.36020        1.22670
|  8> C          2.23060        6.30960        1.10430
|  9> H          3.19210        6.82180        1.19590
| 10> C          1.01630        7.14530        0.97130
| 11> O          1.09400        8.36910        0.94480
| 12> C         -0.28790        6.45620        0.86550
| 13> H         -1.19220        7.06330        0.75850
| 14> C         -0.35590        5.11510        0.88660
| 15> H         -1.31820        4.60340        0.79940
| 16> *
| 17>
| 18>                          ****END OF INPUT****
 Total Charge           Charge          ....    0
 Multiplicity           Mult            ....    1
 Number of Electrons    NEL             ....   56
Dispersion correction           -0.010379059
FINAL SINGLE POINT ENERGY      -380.750764784228
Dispersion correction            ... done
Dispersion correction           -0.010385646
FINAL SINGLE POINT ENERGY      -380.751597187647
Dispersion correction            ... done
Dispersion correction           -0.010384554
FINAL SINGLE POINT ENERGY      -380.751868872996
Dispersion correction            ... done
FINAL SINGLE POINT ENERGY      -380.751865056273
FINAL SINGLE POINT ENERGY      -380.751929112730
Dispersion correction           -0.010382421
FINAL SINGLE POINT ENERGY      -380.751927675207
Dispersion correction            ... done
Dispersion correction           -0.010382547
FINAL SINGLE POINT ENERGY      -380.751935824567
Dispersion correction            ... done
                    ***********************HURRAY********************

CARTESIAN COORDINATES (ANGSTROEM)
---------------------------------
  O      0.792007    3.055899    1.026699
  C      0.856159    4.268587    1.012293
  C      2.156506    4.974005    1.121615
  H      3.034933    4.332010    1.225236
  C      2.233853    6.313487    1.100964
  H      3.181630    6.851513    1.185266
  C      1.019308    7.156013    0.971850
  O      1.083513    8.368694    0.957036
  C     -0.281033    6.450599    0.862375
  H     -1.159454    7.092585    0.758660
  C     -0.358375    5.111114    0.883045
  H     -1.306148    4.573094    0.798660

 Multiplicity           Mult            ....    1
 Number of Electrons    NEL             ....   56
 Basis Dimension        Dim             ....  132

ORBITAL ENERGIES
----------------

  NO   OCC          E(Eh)            E(eV)
   0   2.0000     -19.227615      -523.2100
   1   2.0000     -19.227588      -523.2093
   2   2.0000     -10.345739      -281.5219
   3   2.0000     -10.345655      -281.5196
   4   2.0000     -10.279720      -279.7254
   5   2.0000     -10.279663      -279.7239
   6   2.0000     -10.278967      -279.7049
   7   2.0000     -10.278919      -279.7036
   8   2.0000      -1.086948       -29.5773
   9   2.0000      -1.084831       -29.5197
  10   2.0000      -0.884962       -24.0810
  11   2.0000      -0.812770       -22.1166
  12   2.0000      -0.726308       -19.7639
  13   2.0000      -0.660950       -17.9854
  14   2.0000      -0.624340       -16.9891
  15   2.0000      -0.539989       -14.6939
  16   2.0000      -0.525278       -14.2935
  17   2.0000      -0.499063       -13.5802
  18   2.0000      -0.480061       -13.0631
  19   2.0000      -0.467794       -12.7293
  20   2.0000      -0.459822       -12.5124
  21   2.0000      -0.440834       -11.9957
  22   2.0000      -0.434382       -11.8201
  23   2.0000      -0.418842       -11.3973
  24   2.0000      -0.324204        -8.8220
  25   2.0000      -0.322558        -8.7773
  26   2.0000      -0.298666        -8.1271
  27   2.0000      -0.287238        -7.8161
  28   0.0000      -0.131281        -3.5723
  29   0.0000      -0.029581        -0.8049
  30   0.0000       0.014838         0.4038
  31   0.0000       0.070273         1.9122
  32   0.0000       0.089229         2.4280

MULLIKEN ATOMIC CHARGES
-----------------------
   0 O :   -0.194807
   1 C :    0.141642
   2 C :   -0.023048
   3 H :    0.050559
   4 C :   -0.024013
   5 H :    0.049677
   6 C :    0.141631
   7 O :   -0.194805
   8 C :   -0.023056
   9 H :    0.050560
  10 C :   -0.024016
  11 H :    0.049677
Sum of atomic charges:   -0.0000000

LOEWDIN ATOMIC CHARGES
----------------------
   0 O :   -0.116487
   1 C :    0.058831
   2 C :   -0.019991
   3 H :    0.049295
   4 C :   -0.020773
   5 H :    0.049126
   6 C :    0.058828
   7 O :   -0.116484
   8 C :   -0.019991
   9 H :    0.049296
  10 C :   -0.020774
  11 H :    0.049125

  Mayer bond orders larger than 0.100000
B(  0-O ,  1-C ) :   2.0361 B(  1-C ,  2-C ) :   0.9985 B(  1-C , 10-C ) :   0.9979
B(  2-C ,  3-H ) :   0.9815 B(  2-C ,  4-C ) :   1.6925 B(  4-C ,  5-H ) :   0.9820
B(  4-C ,  6-C ) :   0.9979 B(  6-C ,  7-O ) :   2.0361 B(  6-C ,  8-C ) :   0.9985
B(  8-C ,  9-H ) :   0.9815 B(  8-C , 10-C ) :   1.6925 B( 10-C , 11-H ) :   0.9820

Dispersion correction           -0.010382858
FINAL SINGLE POINT ENERGY      -380.751935899388

DIPOLE MOMENT
-------------
                                X             Y             Z
Electronic contribution:     -0.00002       0.00001       0.00028
Nuclear contribution   :     -0.00001       0.00000      -0.00008
                        -----------------------------------------
Total Dipole Moment    :     -0.00003       0.00002       0.00020
                        -----------------------------------------
Magnitude (a.u.)       :      0.00020
Magnitude (Debye)      :      0.00052

Dispersion correction in the Hessian             ... done   (      0.3 sec)

VIBRATIONAL FREQUENCIES
-----------------------

Scaling factor for frequencies =  1.000000000  (already applied!)

   0:         0.00 cm**-1
   1:         0.00 cm**-1
   2:         0.00 cm**-1
   3:         0.00 cm**-1
   4:         0.00 cm**-1
   5:         0.00 cm**-1
   6:        96.70 cm**-1
   7:       233.93 cm**-1
   8:       342.64 cm**-1
   9:       420.43 cm**-1
  10:       453.32 cm**-1
  11:       457.04 cm**-1
  12:       521.01 cm**-1
  13:       610.59 cm**-1
  14:       760.80 cm**-1
  15:       768.25 cm**-1
  16:       794.63 cm**-1
  17:       813.14 cm**-1
  18:       916.91 cm**-1
  19:       945.32 cm**-1
  20:      1033.96 cm**-1
  21:      1037.15 cm**-1
  22:      1075.08 cm**-1
  23:      1142.22 cm**-1
  24:      1231.82 cm**-1
  25:      1334.30 cm**-1
  26:      1368.47 cm**-1
  27:      1409.56 cm**-1
  28:      1691.44 cm**-1
  29:      1724.19 cm**-1
  30:      1815.11 cm**-1
  31:      1816.74 cm**-1
  32:      3214.31 cm**-1
  33:      3215.30 cm**-1
  34:      3231.66 cm**-1
  35:      3233.59 cm**-1

IR SPECTRUM
-----------

 Mode    freq (cm**-1)   T**2         TX         TY         TZ
-------------------------------------------------------------------
   6:        96.70   12.222473  (  0.326025  -0.056812  -3.480367)
   7:       233.93    0.000003  (  0.000023   0.001825   0.000004)
   8:       342.64    0.002551  (  0.048393  -0.013178   0.005969)
   9:       420.43   25.629949  ( -5.032061   0.261946  -0.489585)
  10:       453.32    0.000000  (  0.000161  -0.000012   0.000043)
  11:       457.04    0.000000  ( -0.000060   0.000020  -0.000615)
  12:       521.01    3.049568  ( -0.254471   0.064181   1.726469)
  13:       610.59    0.000000  ( -0.000047   0.000029   0.000028)
  14:       760.80    0.000000  (  0.000224  -0.000034  -0.000072)
  15:       768.25    1.181282  (  0.093832   1.082758  -0.010631)
  16:       794.63    0.000001  (  0.000225  -0.000029  -0.001041)
  17:       813.14    0.000003  ( -0.000078  -0.001684   0.000063)
  18:       916.91   77.771138  ( -0.931241   0.110372   8.768794)
  19:       945.32   16.013487  (  0.230142   3.995062  -0.002070)
  20:      1033.96    0.026154  (  0.001902  -0.156845  -0.039373)
  21:      1037.15    0.000001  (  0.000075   0.000798   0.000108)
  22:      1075.08   44.570639  (  6.637625  -0.386144   0.602882)
  23:      1142.22    0.000000  (  0.000215  -0.000107  -0.000541)
  24:      1231.82    0.000000  ( -0.000125   0.000044  -0.000006)
  25:      1334.30   89.368187  ( -9.398710   0.477054  -0.897137)
  26:      1368.47    9.849335  ( -0.166727  -3.133411   0.057207)
  27:      1409.56    0.000000  (  0.000045  -0.000055  -0.000024)
  28:      1691.44   21.455525  (  4.601695  -0.259303   0.461187)
  29:      1724.19    0.000001  (  0.000911  -0.000027  -0.000494)
  30:      1815.11    0.000062  ( -0.000442  -0.007881   0.000419)
  31:      1816.74  371.039147  ( -0.995851 -19.235087   0.242578)
  32:      3214.31    0.412916  ( -0.097214  -0.635090   0.011231)
  33:      3215.30    0.000001  (  0.000385   0.000613  -0.000018)
  34:      3231.66    0.543839  ( -0.735279   0.056575   0.001389)
  35:      3233.59    0.000000  (  0.000478  -0.000036   0.000111)

--------------------------
THERMOCHEMISTRY AT 298.15K
--------------------------

Temperature         ... 298.15 K
Pressure            ... 1.00 atm
Total Mass          ... 108.10 AMU

Throughout the following assumptions are being made:
  (1) The electronic state is orbitally nondegenerate
  (2) There are no thermally accessible electronically excited states
  (3) Hindered rotations indicated by low frequency modes are not
      treated as such but are treated as vibrations and this may
      cause some error
  (4) All equations used are the standard statistical mechanics
      equations for an ideal gas
  (5) All vibrations are strictly harmonic

freq.      96.70  E(vib)   ...       0.46
freq.     233.93  E(vib)   ...       0.32
freq.     342.64  E(vib)   ...       0.23
freq.     420.43  E(vib)   ...       0.18
freq.     453.32  E(vib)   ...       0.16
freq.     457.04  E(vib)   ...       0.16
freq.     521.01  E(vib)   ...       0.13
freq.     610.59  E(vib)   ...       0.10
freq.     760.80  E(vib)   ...       0.06
freq.     768.25  E(vib)   ...       0.06
freq.     794.63  E(vib)   ...       0.05
freq.     813.14  E(vib)   ...       0.05
freq.     916.91  E(vib)   ...       0.03
freq.     945.32  E(vib)   ...       0.03
freq.    1033.96  E(vib)   ...       0.02
freq.    1037.15  E(vib)   ...       0.02
freq.    1075.08  E(vib)   ...       0.02
freq.    1142.22  E(vib)   ...       0.01
freq.    1231.82  E(vib)   ...       0.01
freq.    1334.30  E(vib)   ...       0.01
freq.    1368.47  E(vib)   ...       0.01
freq.    1409.56  E(vib)   ...       0.00
freq.    1691.44  E(vib)   ...       0.00
freq.    1724.19  E(vib)   ...       0.00
freq.    1815.11  E(vib)   ...       0.00
freq.    1816.74  E(vib)   ...       0.00
freq.    3214.31  E(vib)   ...       0.00
freq.    3215.30  E(vib)   ...       0.00
freq.    3231.66  E(vib)   ...       0.00
freq.    3233.59  E(vib)   ...       0.00

------------
INNER ENERGY
------------

The inner energy is: U= E(el) + E(ZPE) + E(vib) + E(rot) + E(trans)
    E(el)   - is the total energy from the electronic structure calculation
              = E(kin-el) + E(nuc-el) + E(el-el) + E(nuc-nuc)
    E(ZPE)  - the the zero temperature vibrational energy from the frequency calculation
    E(vib)  - the the finite temperature correction to E(ZPE) due to population
              of excited vibrational states
    E(rot)  - is the rotational thermal energy
    E(trans)- is the translational thermal energy

Summary of contributions to the inner energy U:
Electronic energy                ...   -380.75193590 Eh
Zero point energy                ...      0.08590878 Eh      53.91 kcal/mol
Thermal vibrational correction   ...      0.00338118 Eh       2.12 kcal/mol
Thermal rotational correction    ...      0.00141627 Eh       0.89 kcal/mol
Thermal translational correction ...      0.00141627 Eh       0.89 kcal/mol
-----------------------------------------------------------------------
Total thermal energy                   -380.65981339 Eh

Summary of corrections to the electronic energy:
(perhaps to be used in another calculation)
Total thermal correction                  0.00621373 Eh       3.90 kcal/mol
Non-thermal (ZPE) correction              0.08590878 Eh      53.91 kcal/mol
-----------------------------------------------------------------------
Total correction                          0.09212251 Eh      57.81 kcal/mol

--------
ENTHALPY
--------

The enthalpy is H = U + kB*T
                kB is Boltzmann's constant
Total free energy                 ...   -380.65981339 Eh
Thermal Enthalpy correction       ...      0.00094421 Eh       0.59 kcal/mol
-----------------------------------------------------------------------
Total Enthalpy                    ...   -380.65886918 Eh

Note: Only C1 symmetry has been detected, increase convergence thresholds
      if your molecule has a higher symmetry. Symmetry factor of 1.0 is
      used for the rotational entropy correction.

Note: Rotational entropy computed according to Herzberg
Infrared and Raman Spectra, Chapter V,1, Van Nostrand Reinhold, 1945
Point Group:  C1, Symmetry Number:   1
Rotational constants in cm-1:     0.175394     0.055307     0.042048

Vibrational entropy computed according to the QRRHO of S. Grimme
Chem.Eur.J. 2012 18 9955

-------
ENTROPY
-------

The entropy contributions are T*S = T*(S(el)+S(vib)+S(rot)+S(trans))
     S(el)   - electronic entropy
     S(vib)  - vibrational entropy
     S(rot)  - rotational entropy
     S(trans)- translational entropy
The entropies will be listed as mutliplied by the temperature to get
units of energy

Electronic entropy                ...      0.00000000 Eh      0.00 kcal/mol
Vibrational entropy               ...      0.00535295 Eh      3.36 kcal/mol
Rotational entropy                ...      0.01319524 Eh      8.28 kcal/mol
Translational entropy             ...      0.01898150 Eh     11.91 kcal/mol
-----------------------------------------------------------------------
Final entropy term                ...      0.03752969 Eh     23.55 kcal/mol

In case the symmetry of your molecule has not been determined correctly
or in case you have a reason to use a different symmetry number we print
out the resulting rotational entropy values for sn=1,12 :
 --------------------------------------------------------
|  sn= 1 | S(rot)=       0.01319524 Eh      8.28 kcal/mol|
|  sn= 2 | S(rot)=       0.01254079 Eh      7.87 kcal/mol|
|  sn= 3 | S(rot)=       0.01215795 Eh      7.63 kcal/mol|
|  sn= 4 | S(rot)=       0.01188633 Eh      7.46 kcal/mol|
|  sn= 5 | S(rot)=       0.01167564 Eh      7.33 kcal/mol|
|  sn= 6 | S(rot)=       0.01150350 Eh      7.22 kcal/mol|
|  sn= 7 | S(rot)=       0.01135795 Eh      7.13 kcal/mol|
|  sn= 8 | S(rot)=       0.01123187 Eh      7.05 kcal/mol|
|  sn= 9 | S(rot)=       0.01112066 Eh      6.98 kcal/mol|
|  sn=10 | S(rot)=       0.01102118 Eh      6.92 kcal/mol|
|  sn=11 | S(rot)=       0.01093119 Eh      6.86 kcal/mol|
|  sn=12 | S(rot)=       0.01084904 Eh      6.81 kcal/mol|
 --------------------------------------------------------

-------------------
GIBBS FREE ENERGY
-------------------

The Gibbs free energy is G = H - T*S

Total enthalpy                    ...   -380.65886918 Eh
Total entropy correction          ...     -0.03752969 Eh    -23.55 kcal/mol
-----------------------------------------------------------------------
Final Gibbs free energy         ...   -380.69639887 Eh

For completeness - the Gibbs free energy minus the electronic energy
G-E(el)                           ...      0.05553703 Eh     34.85 kcal/mol

                             ****ORCA TERMINATED NORMALLY****
TOTAL RUN TIME: 0 days 0 hours 1 minutes 37 seconds 67 msec
