                         Program Version 4.2.1 -  RELEASE  -
|  1> ! PBE0 D3BJ def2-SVP LooseOpt Freq CPCM(water) PAL4
|  2> %geom MaxIter 500 end
|  3> %maxcore 4000
|  4> %cpcm
|  5>     smd true
|  6>     SMDsolvent "water"
|  7> end
|  8> *xyzfile 0 1 monomer.xyz
|  9>
| 10>                          ****END OF INPUT****
 Total Charge           Charge          ....    0
 Multiplicity           Mult            ....    1
 Number of Electrons    NEL             ....   10
Dispersion correction           -0.000276920
FINAL SINGLE POINT ENERGY       -76.288631306433
Dispersion correction            ... done
Dispersion correction           -0.000276920
FINAL SINGLE POINT ENERGY       -76.288701541606
Dispersion correction            ... done
                    ***********************HURRAY********************

CARTESIAN COORDINATES (ANGSTROEM)
---------------------------------
  O      7.275269    4.420647    3.842290
  H      7.889465    4.731556    4.519396
  H      7.792916    3.737367    3.397634

 Multiplicity           Mult            ....    1
 Number of Electrons    NEL             ....   10
 Basis Dimension        Dim             ....   24

ORBITAL ENERGIES
----------------

  NO   OCC          E(Eh)            E(eV)
   0   2.0000     -19.192370      -522.2509
   1   2.0000      -1.003362       -27.3029
   2   2.0000      -0.517803       -14.0901
   3   2.0000      -0.392179       -10.6717
   4   2.0000      -0.311706        -8.4819
   5   0.0000       0.086821         2.3625
   6   0.0000       0.167349         4.5538
   7   0.0000       0.581015        15.8102
   8   0.0000       0.662056        18.0155
   9   0.0000       0.924214        25.1491

MULLIKEN ATOMIC CHARGES
-----------------------
   0 O :   -0.398155
   1 H :    0.199141
   2 H :    0.199014
Sum of atomic charges:   -0.0000000

LOEWDIN ATOMIC CHARGES
----------------------
   0 O :   -0.200027
   1 H :    0.100028
   2 H :    0.100000

  Mayer bond orders larger than 0.100000
B(  0-O ,  1-H ) :   0.9876 B(  0-O ,  2-H ) :   0.9875

Dispersion correction           -0.000276918
FINAL SINGLE POINT ENERGY       -76.288703443144

DIPOLE MOMENT
-------------
                                X             Y             Z
Electronic contribution:     -0.05122       0.01590      -0.00918
Nuclear contribution   :      0.94210      -0.30995       0.19348
                        -----------------------------------------
Total Dipole Moment    :      0.89088      -0.29405       0.18430
                        -----------------------------------------
Magnitude (a.u.)       :      0.95608
Magnitude (Debye)      :      2.43017

Dispersion correction in the Hessian             ... done   (      0.2 sec)

VIBRATIONAL FREQUENCIES
-----------------------

Scaling factor for frequencies =  1.000000000  (already applied!)

   0:         0.00 cm**-1
   1:         0.00 cm**-1
   2:         0.00 cm**-1
   3:         0.00 cm**-1
   4:         0.00 cm**-1
   5:         0.00 cm**-1
   6:      1611.74 cm**-1
   7:      3837.46 cm**-1
   8:      3911.43 cm**-1

IR SPECTRUM
-----------

 Mode    freq (cm**-1)   T**2         TX         TY         TZ
-------------------------------------------------------------------
   6:      1611.74  109.859653  (  9.776900  -3.194595   2.016540)
   7:      3837.46   44.079061  (  6.172783  -2.183130   1.099890)
   8:      3911.43  113.283030  (  0.868987   6.985329   7.983299)

--------------------------
THERMOCHEMISTRY AT 298.15K
--------------------------

Temperature         ... 298.15 K
Pressure            ... 1.00 atm
Total Mass          ... 18.02 AMU

Throughout the following assumptions are being made:
  (1) The electronic state is orbitally nondegenerate
  (2) There are no thermally accessible electronically excited states
  (3) Hindered rotations indicated by low frequency modes are not
      treated as such but are treated as vibrations and this may
      cause some error
  (4) All equations used are the standard statistical mechanics
      equations for an ideal gas
  (5) All vibrations are strictly harmonic

freq.    1611.74  E(vib)   ...       0.00
freq.    3837.46  E(vib)   ...       0.00
freq.    3911.43  E(vib)   ...       0.00

------------
INNER ENERGY
------------

The inner energy is: U= E(el) + E(ZPE) + E(vib) + E(rot) + E(trans)
    E(el)   - is the total energy from the electronic structure calculation
              = E(kin-el) + E(nuc-el) + E(el-el) + E(nuc-nuc)
    E(ZPE)  - the the zero temperature vibrational energy from the frequency calculation
    E(vib)  - the the finite temperature correction to E(ZPE) due to population
              of excited vibrational states
    E(rot)  - is the rotational thermal energy
    E(trans)- is the translational thermal energy

Summary of contributions to the inner energy U:
Electronic energy                ...    -76.28870344 Eh
Zero point energy                ...      0.02132511 Eh      13.38 kcal/mol
Thermal vibrational correction   ...      0.00000308 Eh       0.00 kcal/mol
Thermal rotational correction    ...      0.00141627 Eh       0.89 kcal/mol
Thermal translational correction ...      0.00141627 Eh       0.89 kcal/mol
-----------------------------------------------------------------------
Total thermal energy                    -76.26454271 Eh

Summary of corrections to the electronic energy:
(perhaps to be used in another calculation)
Total thermal correction                  0.00283562 Eh       1.78 kcal/mol
Non-thermal (ZPE) correction              0.02132511 Eh      13.38 kcal/mol
-----------------------------------------------------------------------
Total correction                          0.02416073 Eh      15.16 kcal/mol

--------
ENTHALPY
--------

The enthalpy is H = U + kB*T
                kB is Boltzmann's constant
Total free energy                 ...    -76.26454271 Eh
Thermal Enthalpy correction       ...      0.00094421 Eh       0.59 kcal/mol
-----------------------------------------------------------------------
Total Enthalpy                    ...    -76.26359851 Eh

Note: Rotational entropy computed according to Herzberg
Infrared and Raman Spectra, Chapter V,1, Van Nostrand Reinhold, 1945
Point Group:  Cs, Symmetry Number:   1
Rotational constants in cm-1:    25.555289    14.825570     9.382458

Vibrational entropy computed according to the QRRHO of S. Grimme
Chem.Eur.J. 2012 18 9955

-------
ENTROPY
-------

The entropy contributions are T*S = T*(S(el)+S(vib)+S(rot)+S(trans))
     S(el)   - electronic entropy
     S(vib)  - vibrational entropy
     S(rot)  - rotational entropy
     S(trans)- translational entropy
The entropies will be listed as mutliplied by the temperature to get
units of energy

Electronic entropy                ...      0.00000000 Eh      0.00 kcal/mol
Vibrational entropy               ...      0.00000347 Eh      0.00 kcal/mol
Rotational entropy                ...      0.00565098 Eh      3.55 kcal/mol
Translational entropy             ...      0.01644380 Eh     10.32 kcal/mol
-----------------------------------------------------------------------
Final entropy term                ...      0.02209826 Eh     13.87 kcal/mol

In case the symmetry of your molecule has not been determined correctly
or in case you have a reason to use a different symmetry number we print
out the resulting rotational entropy values for sn=1,12 :
 --------------------------------------------------------
|  sn= 1 | S(rot)=       0.00565098 Eh      3.55 kcal/mol|
|  sn= 2 | S(rot)=       0.00499652 Eh      3.14 kcal/mol|
|  sn= 3 | S(rot)=       0.00461369 Eh      2.90 kcal/mol|
|  sn= 4 | S(rot)=       0.00434207 Eh      2.72 kcal/mol|
|  sn= 5 | S(rot)=       0.00413138 Eh      2.59 kcal/mol|
|  sn= 6 | S(rot)=       0.00395923 Eh      2.48 kcal/mol|
|  sn= 7 | S(rot)=       0.00381369 Eh      2.39 kcal/mol|
|  sn= 8 | S(rot)=       0.00368761 Eh      2.31 kcal/mol|
|  sn= 9 | S(rot)=       0.00357640 Eh      2.24 kcal/mol|
|  sn=10 | S(rot)=       0.00347692 Eh      2.18 kcal/mol|
|  sn=11 | S(rot)=       0.00338693 Eh      2.13 kcal/mol|
|  sn=12 | S(rot)=       0.00330478 Eh      2.07 kcal/mol|
 --------------------------------------------------------

-------------------
GIBBS FREE ENERGY
-------------------

The Gibbs free energy is G = H - T*S

Total enthalpy                    ...    -76.26359851 Eh
Total entropy correction          ...     -0.02209826 Eh    -13.87 kcal/mol
-----------------------------------------------------------------------
Final Gibbs free energy         ...    -76.28569676 Eh

For completeness - the Gibbs free energy minus the electronic energy
G-E(el)                           ...      0.00300668 Eh      1.89 kcal/mol

                             ****ORCA TERMINATED NORMALLY****
TOTAL RUN TIME: 0 days 0 hours 0 minutes 20 seconds 916 msec
