                         Program Version 4.2.1 -  RELEASE  -
|  1> ! PBE0 D3BJ def2-SVP LooseOpt Freq CPCM(water) PAL4
|  2> %geom MaxIter 500 end
|  3> %maxcore 4000
|  4> %cpcm
|  5>     smd true
|  6>     SMDsolvent "water"
|  7> end
|  8> *xyzfile 0 1 octamer.xyz
|  9>
| 10>                          ****END OF INPUT****
 Total Charge           Charge          ....    0
 Multiplicity           Mult            ....    1
 Number of Electrons    NEL             ....   80
Dispersion correction           -0.012873469
FINAL SINGLE POINT ENERGY      -610.433975839818
Dispersion correction            ... done
                    ***********************HURRAY********************

CARTESIAN COORDINATES (ANGSTROEM)
---------------------------------
  O      7.715991    4.862532    4.058182
  H      7.711614    5.702880    4.602125
  H      8.581768    4.460982    4.210947
  O      5.036729    7.494971    5.823137
  H      4.534761    6.849660    5.248334
  H      4.738536    8.358302    5.507572
  O      7.233307    6.853526    2.279055
  H      7.531600    6.001386    2.666663
  H      7.813862    6.996263    1.519612
  O      4.842943    3.553476    1.528285
  H      3.928695    3.243022    1.487454
  H      5.076305    3.441689    2.479873
  O      3.800690    5.759834    4.269637
  H      4.044242    6.027363    3.346478
  H      4.298745    4.921682    4.378940
  O      5.426289    3.572004    4.163477
  H      5.451450    2.775017    4.708500
  H      6.334741    3.969606    4.220908
  O      7.554298    7.293217    5.021413
  H      6.612260    7.391319    5.330774
  H      7.513541    7.524341    4.075650
  O      4.619212    6.256669    1.761219
  H      5.556904    6.522857    1.890115
  H      4.682766    5.295293    1.550870

 Multiplicity           Mult            ....    1
 Number of Electrons    NEL             ....   80
 Basis Dimension        Dim             ....  192

ORBITAL ENERGIES
----------------

  NO   OCC          E(Eh)            E(eV)
   0   2.0000     -19.216505      -522.9077
   1   2.0000     -19.216075      -522.8960
   2   2.0000     -19.212948      -522.8109
   3   2.0000     -19.199499      -522.4449
   4   2.0000     -19.193960      -522.2942
   5   2.0000     -19.191518      -522.2278
   6   2.0000     -19.184790      -522.0447
   7   2.0000     -19.184301      -522.0314
   8   2.0000      -1.039212       -28.2784
   9   2.0000      -1.025499       -27.9053
  10   2.0000      -1.018334       -27.7103
  11   2.0000      -1.013446       -27.5773
  12   2.0000      -1.005723       -27.3671
  13   2.0000      -0.998576       -27.1726
  14   2.0000      -0.988997       -26.9120
  15   2.0000      -0.979805       -26.6618
  16   2.0000      -0.562655       -15.3106
  17   2.0000      -0.550767       -14.9871
  18   2.0000      -0.533062       -14.5054
  19   2.0000      -0.529579       -14.4106
  20   2.0000      -0.526222       -14.3192
  21   2.0000      -0.523263       -14.2387
  22   2.0000      -0.521059       -14.1787
  23   2.0000      -0.517476       -14.0812
  24   2.0000      -0.445451       -12.1213
  25   2.0000      -0.428113       -11.6495
  26   2.0000      -0.424767       -11.5585
  27   2.0000      -0.406983       -11.0746
  28   2.0000      -0.400438       -10.8965
  29   2.0000      -0.390154       -10.6166
  30   2.0000      -0.389400       -10.5961
  31   2.0000      -0.368753       -10.0343
  32   2.0000      -0.338194        -9.2027
  33   2.0000      -0.330828        -9.0023
  34   2.0000      -0.328622        -8.9423
  35   2.0000      -0.318799        -8.6750
  36   2.0000      -0.316309        -8.6072
  37   2.0000      -0.315112        -8.5746
  38   2.0000      -0.308750        -8.4015
  39   2.0000      -0.305994        -8.3265
  40   0.0000       0.053828         1.4647
  41   0.0000       0.091872         2.5000
  42   0.0000       0.101148         2.7524
  43   0.0000       0.107883         2.9357
  44   0.0000       0.129858         3.5336

MULLIKEN ATOMIC CHARGES
-----------------------
   0 O :   -0.349782
   1 H :    0.185849
   2 H :    0.229938
   3 O :   -0.388558
   4 H :    0.178771
   5 H :    0.208326
   6 O :   -0.333593
   7 H :    0.175305
   8 H :    0.225245
   9 O :   -0.376417
  10 H :    0.212093
  11 H :    0.172512
  12 O :   -0.410189
  13 H :    0.155864
  14 H :    0.170877
  15 O :   -0.346542
  16 H :    0.225241
  17 H :    0.197139
  18 O :   -0.399262
  19 H :    0.177270
  20 H :    0.166322
  21 O :   -0.406324
  22 H :    0.168779
  23 H :    0.161136
Sum of atomic charges:    0.0000000

LOEWDIN ATOMIC CHARGES
----------------------
   0 O :   -0.075354
   1 H :    0.046410
   2 H :    0.113791
   3 O :   -0.140749
   4 H :    0.035168
   5 H :    0.099009
   6 O :   -0.087851
   7 H :    0.056729
   8 H :    0.114168
   9 O :   -0.144386
  10 H :    0.103164
  11 H :    0.041158
  12 O :   -0.153345
  13 H :    0.029680
  14 H :    0.038884
  15 O :   -0.076354
  16 H :    0.111557
  17 H :    0.047172
  18 O :   -0.150933
  19 H :    0.034211
  20 H :    0.051408
  21 O :   -0.164725
  22 H :    0.036641
  23 H :    0.034548

  Mayer bond orders larger than 0.100000
B(  0-O ,  1-H ) :   0.8417 B(  0-O ,  2-H ) :   0.9589 B(  0-O ,  7-H ) :   0.1619
B(  0-O , 17-H ) :   0.1829 B(  1-H , 18-O ) :   0.2295 B(  3-O ,  4-H ) :   0.8630
B(  3-O ,  5-H ) :   0.9736 B(  3-O , 19-H ) :   0.2167 B(  4-H , 12-O ) :   0.2187
B(  6-O ,  7-H ) :   0.8927 B(  6-O ,  8-H ) :   0.9625 B(  6-O , 20-H ) :   0.1246
B(  6-O , 22-H ) :   0.1674 B(  9-O , 10-H ) :   0.9735 B(  9-O , 11-H ) :   0.8984
B(  9-O , 23-H ) :   0.1915 B( 11-H , 15-O ) :   0.1739 B( 12-O , 13-H ) :   0.8819
B( 12-O , 14-H ) :   0.9141 B( 13-H , 21-O ) :   0.2174 B( 14-H , 15-O ) :   0.1561
B( 15-O , 16-H ) :   0.9611 B( 15-O , 17-H ) :   0.8622 B( 18-O , 19-H ) :   0.8699
B( 18-O , 20-H ) :   0.9398 B( 21-O , 22-H ) :   0.9084 B( 21-O , 23-H ) :   0.8987

Dispersion correction           -0.012871079
FINAL SINGLE POINT ENERGY      -610.433983658315

DIPOLE MOMENT
-------------
                                X             Y             Z
Electronic contribution:      0.36623      -0.26601       0.03577
Nuclear contribution   :      1.62549      -1.50723      -0.48609
                        -----------------------------------------
Total Dipole Moment    :      1.99172      -1.77324      -0.45033
                        -----------------------------------------
Magnitude (a.u.)       :      2.70447
Magnitude (Debye)      :      6.87421

Dispersion correction in the Hessian             ... done   (      1.3 sec)

VIBRATIONAL FREQUENCIES
-----------------------

Scaling factor for frequencies =  1.000000000  (already applied!)

   0:         0.00 cm**-1
   1:         0.00 cm**-1
   2:         0.00 cm**-1
   3:         0.00 cm**-1
   4:         0.00 cm**-1
   5:         0.00 cm**-1
   6:        21.03 cm**-1
   7:        23.30 cm**-1
   8:        45.54 cm**-1
   9:        52.91 cm**-1
  10:        61.51 cm**-1
  11:        63.00 cm**-1
  12:        92.69 cm**-1
  13:       148.18 cm**-1
  14:       193.42 cm**-1
  15:       202.73 cm**-1
  16:       212.75 cm**-1
  17:       222.52 cm**-1
  18:       234.94 cm**-1
  19:       241.25 cm**-1
  20:       245.34 cm**-1
  21:       253.71 cm**-1
  22:       263.78 cm**-1
  23:       268.53 cm**-1
  24:       290.94 cm**-1
  25:       310.60 cm**-1
  26:       317.37 cm**-1
  27:       340.02 cm**-1
  28:       345.62 cm**-1
  29:       383.98 cm**-1
  30:       412.99 cm**-1
  31:       451.95 cm**-1
  32:       464.20 cm**-1
  33:       528.78 cm**-1
  34:       581.26 cm**-1
  35:       618.69 cm**-1
  36:       634.63 cm**-1
  37:       655.41 cm**-1
  38:       675.90 cm**-1
  39:       740.82 cm**-1
  40:       750.07 cm**-1
  41:       801.71 cm**-1
  42:       834.64 cm**-1
  43:       886.43 cm**-1
  44:       938.20 cm**-1
  45:       963.65 cm**-1
  46:      1045.36 cm**-1
  47:      1086.99 cm**-1
  48:      1585.66 cm**-1
  49:      1611.47 cm**-1
  50:      1630.48 cm**-1
  51:      1644.56 cm**-1
  52:      1655.20 cm**-1
  53:      1665.63 cm**-1
  54:      1681.88 cm**-1
  55:      1709.07 cm**-1
  56:      3089.11 cm**-1
  57:      3149.79 cm**-1
  58:      3269.00 cm**-1
  59:      3295.85 cm**-1
  60:      3324.17 cm**-1
  61:      3420.02 cm**-1
  62:      3477.18 cm**-1
  63:      3491.90 cm**-1
  64:      3544.09 cm**-1
  65:      3563.45 cm**-1
  66:      3692.74 cm**-1
  67:      3865.15 cm**-1
  68:      3869.19 cm**-1
  69:      3870.98 cm**-1
  70:      3873.57 cm**-1
  71:      3879.47 cm**-1

IR SPECTRUM
-----------

 Mode    freq (cm**-1)   T**2         TX         TY         TZ
-------------------------------------------------------------------
   6:        21.03    1.827733  ( -1.175520  -0.559048  -0.365173)
   7:        23.30   28.853814  ( -0.040805  -2.739103  -4.620548)
   8:        45.54   12.052999  ( -1.683553  -2.968158   0.639284)
   9:        52.91    2.831639  ( -1.430444  -0.795618  -0.390463)
  10:        61.51    2.535013  ( -1.217608   0.636049   0.804914)
  11:        63.00    1.273870  ( -0.611639   0.806642   0.499096)
  12:        92.69    3.024401  ( -0.585707   1.637476   0.004434)
  13:       148.18    7.495413  (  0.133453   2.309522  -1.464141)
  14:       193.42   51.420963  (  3.837091  -4.229267  -4.337165)
  15:       202.73    7.081621  ( -1.464002  -1.560347  -1.582288)
  16:       212.75   31.868294  ( -3.797487   3.259684  -2.611868)
  17:       222.52   47.679864  (  6.207255  -2.372830   1.876040)
  18:       234.94    9.677916  ( -1.511180  -2.651941   0.601218)
  19:       241.25   35.001188  (  0.104416   3.389216   4.848041)
  20:       245.34  198.278400  (  1.227773  10.589621   9.199506)
  21:       253.71   33.413442  (  1.670556   5.367724  -1.345445)
  22:       263.78   27.890769  (  3.980755  -2.518631  -2.387646)
  23:       268.53  140.536252  ( -7.068919  -8.940222  -3.261759)
  24:       290.94  140.057618  ( -8.221975   1.016906   8.451192)
  25:       310.60  183.186665  (  4.849366 -11.037523  -6.151699)
  26:       317.37   45.877704  ( -2.095214  -0.297946   6.434206)
  27:       340.02   50.896027  (  1.929139  -5.943054  -3.443045)
  28:       345.62   12.758527  (  2.898081   1.087326  -1.782519)
  29:       383.98   46.505785  ( -0.615496   3.363737   5.900188)
  30:       412.99  312.421269  ( -2.225904  11.623760 -13.128397)
  31:       451.95   72.728498  (  5.244692   2.914630  -6.060250)
  32:       464.20   60.933629  ( -1.961445  -3.099232  -6.890655)
  33:       528.78  320.241595  ( -9.971405 -14.696511  -2.196645)
  34:       581.26  135.437907  (  7.331189   0.742029  -9.007828)
  35:       618.69  141.340839  ( -2.380423  -8.389010  -8.080776)
  36:       634.63   21.069903  ( -4.553379  -0.344443  -0.466905)
  37:       655.41  155.530585  ( -3.003475 -11.403810  -4.057443)
  38:       675.90   57.805069  (  3.729422  -6.027024   2.751631)
  39:       740.82  316.615938  ( -8.591552   9.549752 -12.312734)
  40:       750.07   74.902774  (  6.553285   5.542460  -1.112819)
  41:       801.71  153.128029  ( -2.117496  10.315490   6.498838)
  42:       834.64  357.138022  (  9.343565  10.828141 -12.352619)
  43:       886.43  196.722825  (  3.023494  10.389073   8.924599)
  44:       938.20  394.750266  ( -1.635305  -8.166391 -18.038462)
  45:       963.65  117.264387  ( -6.751333  -8.466407   0.061924)
  46:      1045.36  202.165678  (-13.357276  -0.602624   4.835877)
  47:      1086.99   79.841343  (  1.458402   6.189953  -6.276854)
  48:      1585.66   82.181748  (  2.649319   0.119761   8.668824)
  49:      1611.47  103.945404  (  7.563216  -6.115319  -3.057130)
  50:      1630.48  174.589813  (-12.712298   3.497936  -0.867026)
  51:      1644.56  169.008217  ( -9.197342   3.536987  -8.479790)
  52:      1655.20  111.044548  ( -3.138633  -6.693129   7.509697)
  53:      1665.63    0.895545  (  0.250363   0.023311   0.912316)
  54:      1681.88   63.170947  (  7.144425  -3.482342  -0.037875)
  55:      1709.07  163.616262  ( -8.076853   6.097348   7.823238)
  56:      3089.11  557.719176  ( 16.730949 -15.933666  -4.890073)
  57:      3149.79  3171.918509  (-18.669196 -42.303569 -32.152569)
  58:      3269.00  1952.188411  (-40.605353   2.182399  17.280938)
  59:      3295.85  539.476190  (-19.415950  -5.805995 -11.348458)
  60:      3324.17  475.257062  (-14.998927  -6.952952  14.210760)
  61:      3420.02  1342.209067  (-11.182830 -24.687792  24.650888)
  62:      3477.18  952.149102  (  6.743223  20.790235  21.781740)
  63:      3491.90  1106.606825  ( 28.412488 -10.151135  14.010418)
  64:      3544.09  823.943765  ( -3.939781 -28.008823   4.891600)
  65:      3563.45  677.593851  ( 14.205777 -19.787107   9.179332)
  66:      3692.74  508.098750  ( -2.136217  -2.746165  22.270921)
  67:      3865.15  104.218506  ( -1.793146   9.879075  -1.845807)
  68:      3869.19  102.937268  ( -9.169437  -1.655618  -4.014676)
  69:      3870.98  122.614279  (  4.228645  -7.293592   7.178883)
  70:      3873.57  191.616590  ( 11.294045   0.520409  -7.986884)
  71:      3879.47  146.406521  (  1.805626  10.908700  -4.913909)

--------------------------
THERMOCHEMISTRY AT 298.15K
--------------------------

Temperature         ... 298.15 K
Pressure            ... 1.00 atm
Total Mass          ... 144.12 AMU

Throughout the following assumptions are being made:
  (1) The electronic state is orbitally nondegenerate
  (2) There are no thermally accessible electronically excited states
  (3) Hindered rotations indicated by low frequency modes are not
      treated as such but are treated as vibrations and this may
      cause some error
  (4) All equations used are the standard statistical mechanics
      equations for an ideal gas
  (5) All vibrations are strictly harmonic

freq.      21.03  E(vib)   ...       0.56
freq.      23.30  E(vib)   ...       0.56
freq.      45.54  E(vib)   ...       0.53
freq.      52.91  E(vib)   ...       0.52
freq.      61.51  E(vib)   ...       0.51
freq.      63.00  E(vib)   ...       0.51
freq.      92.69  E(vib)   ...       0.47
freq.     148.18  E(vib)   ...       0.41
freq.     193.42  E(vib)   ...       0.36
freq.     202.73  E(vib)   ...       0.35
freq.     212.75  E(vib)   ...       0.34
freq.     222.52  E(vib)   ...       0.33
freq.     234.94  E(vib)   ...       0.32
freq.     241.25  E(vib)   ...       0.31
freq.     245.34  E(vib)   ...       0.31
freq.     253.71  E(vib)   ...       0.30
freq.     263.78  E(vib)   ...       0.29
freq.     268.53  E(vib)   ...       0.29
freq.     290.94  E(vib)   ...       0.27
freq.     310.60  E(vib)   ...       0.26
freq.     317.37  E(vib)   ...       0.25
freq.     340.02  E(vib)   ...       0.23
freq.     345.62  E(vib)   ...       0.23
freq.     383.98  E(vib)   ...       0.20
freq.     412.99  E(vib)   ...       0.19
freq.     451.95  E(vib)   ...       0.16
freq.     464.20  E(vib)   ...       0.16
freq.     528.78  E(vib)   ...       0.13
freq.     581.26  E(vib)   ...       0.11
freq.     618.69  E(vib)   ...       0.09
freq.     634.63  E(vib)   ...       0.09
freq.     655.41  E(vib)   ...       0.08
freq.     675.90  E(vib)   ...       0.08
freq.     740.82  E(vib)   ...       0.06
freq.     750.07  E(vib)   ...       0.06
freq.     801.71  E(vib)   ...       0.05
freq.     834.64  E(vib)   ...       0.04
freq.     886.43  E(vib)   ...       0.04
freq.     938.20  E(vib)   ...       0.03
freq.     963.65  E(vib)   ...       0.03
freq.    1045.36  E(vib)   ...       0.02
freq.    1086.99  E(vib)   ...       0.02
freq.    1585.66  E(vib)   ...       0.00
freq.    1611.47  E(vib)   ...       0.00
freq.    1630.48  E(vib)   ...       0.00
freq.    1644.56  E(vib)   ...       0.00
freq.    1655.20  E(vib)   ...       0.00
freq.    1665.63  E(vib)   ...       0.00
freq.    1681.88  E(vib)   ...       0.00
freq.    1709.07  E(vib)   ...       0.00
freq.    3089.11  E(vib)   ...       0.00
freq.    3149.79  E(vib)   ...       0.00
freq.    3269.00  E(vib)   ...       0.00
freq.    3295.85  E(vib)   ...       0.00
freq.    3324.17  E(vib)   ...       0.00
freq.    3420.02  E(vib)   ...       0.00
freq.    3477.18  E(vib)   ...       0.00
freq.    3491.90  E(vib)   ...       0.00
freq.    3544.09  E(vib)   ...       0.00
freq.    3563.45  E(vib)   ...       0.00
freq.    3692.74  E(vib)   ...       0.00
freq.    3865.15  E(vib)   ...       0.00
freq.    3869.19  E(vib)   ...       0.00
freq.    3870.98  E(vib)   ...       0.00
freq.    3873.57  E(vib)   ...       0.00
freq.    3879.47  E(vib)   ...       0.00

------------
INNER ENERGY
------------

The inner energy is: U= E(el) + E(ZPE) + E(vib) + E(rot) + E(trans)
    E(el)   - is the total energy from the electronic structure calculation
              = E(kin-el) + E(nuc-el) + E(el-el) + E(nuc-nuc)
    E(ZPE)  - the the zero temperature vibrational energy from the frequency calculation
    E(vib)  - the the finite temperature correction to E(ZPE) due to population
              of excited vibrational states
    E(rot)  - is the rotational thermal energy
    E(trans)- is the translational thermal energy

Summary of contributions to the inner energy U:
Electronic energy                ...   -610.43398366 Eh
Zero point energy                ...      0.19994779 Eh     125.47 kcal/mol
Thermal vibrational correction   ...      0.01617747 Eh      10.15 kcal/mol
Thermal rotational correction    ...      0.00141627 Eh       0.89 kcal/mol
Thermal translational correction ...      0.00141627 Eh       0.89 kcal/mol
-----------------------------------------------------------------------
Total thermal energy                   -610.21502585 Eh

Summary of corrections to the electronic energy:
(perhaps to be used in another calculation)
Total thermal correction                  0.01901001 Eh      11.93 kcal/mol
Non-thermal (ZPE) correction              0.19994779 Eh     125.47 kcal/mol
-----------------------------------------------------------------------
Total correction                          0.21895780 Eh     137.40 kcal/mol

--------
ENTHALPY
--------

The enthalpy is H = U + kB*T
                kB is Boltzmann's constant
Total free energy                 ...   -610.21502585 Eh
Thermal Enthalpy correction       ...      0.00094421 Eh       0.59 kcal/mol
-----------------------------------------------------------------------
Total Enthalpy                    ...   -610.21408165 Eh

Note: Only C1 symmetry has been detected, increase convergence thresholds
      if your molecule has a higher symmetry. Symmetry factor of 1.0 is
      used for the rotational entropy correction.

Note: Rotational entropy computed according to Herzberg
Infrared and Raman Spectra, Chapter V,1, Van Nostrand Reinhold, 1945
Point Group:  C1, Symmetry Number:   1
Rotational constants in cm-1:     0.036990     0.025670     0.023367

Vibrational entropy computed according to the QRRHO of S. Grimme
Chem.Eur.J. 2012 18 9955

-------
ENTROPY
-------

The entropy contributions are T*S = T*(S(el)+S(vib)+S(rot)+S(trans))
     S(el)   - electronic entropy
     S(vib)  - vibrational entropy
     S(rot)  - rotational entropy
     S(trans)- translational entropy
The entropies will be listed as mutliplied by the temperature to get
units of energy

Electronic entropy                ...      0.00000000 Eh      0.00 kcal/mol
Vibrational entropy               ...      0.02924618 Eh     18.35 kcal/mol
Rotational entropy                ...      0.01456973 Eh      9.14 kcal/mol
Translational entropy             ...      0.01938886 Eh     12.17 kcal/mol
-----------------------------------------------------------------------
Final entropy term                ...      0.06320477 Eh     39.66 kcal/mol

In case the symmetry of your molecule has not been determined correctly

                             ****ORCA TERMINATED NORMALLY****
TOTAL RUN TIME: 0 days 0 hours 8 minutes 2 seconds 773 msec
