                         Program Version 4.2.1 -  RELEASE  -
|  1> ! PBE0 D3BJ def2-SVP LooseOpt Freq CPCM(water) PAL4
|  2> %geom MaxIter 500 end
|  3> %maxcore 4000
|  4> %cpcm
|  5>     smd true
|  6>     SMDsolvent "water"
|  7> end
|  8> *xyzfile 0 1 septamer2.xyz
|  9>
| 10>                          ****END OF INPUT****
 Total Charge           Charge          ....    0
 Multiplicity           Mult            ....    1
 Number of Electrons    NEL             ....   70
Dispersion correction           -0.008673088
FINAL SINGLE POINT ENERGY      -534.045954712816
Dispersion correction            ... done
Dispersion correction           -0.008716966
FINAL SINGLE POINT ENERGY      -534.062706920905
Dispersion correction            ... done
Dispersion correction           -0.008897073
FINAL SINGLE POINT ENERGY      -534.066066492899
Dispersion correction            ... done
FINAL SINGLE POINT ENERGY      -534.069017508465
FINAL SINGLE POINT ENERGY      -534.071805646711
FINAL SINGLE POINT ENERGY      -534.074653581870
FINAL SINGLE POINT ENERGY      -534.077571134328
FINAL SINGLE POINT ENERGY      -534.080804477540
FINAL SINGLE POINT ENERGY      -534.084265569582
FINAL SINGLE POINT ENERGY      -534.088438012654
FINAL SINGLE POINT ENERGY      -534.128815299856
FINAL SINGLE POINT ENERGY      -534.128870011049
FINAL SINGLE POINT ENERGY      -534.128975630257
FINAL SINGLE POINT ENERGY      -534.129030114446
FINAL SINGLE POINT ENERGY      -534.129041196911
FINAL SINGLE POINT ENERGY      -534.129076779598
FINAL SINGLE POINT ENERGY      -534.129089321998
Dispersion correction           -0.011348722
FINAL SINGLE POINT ENERGY      -534.129067114833
Dispersion correction            ... done
Dispersion correction           -0.011347163
FINAL SINGLE POINT ENERGY      -534.129098237734
Dispersion correction            ... done
                    ***********************HURRAY********************

CARTESIAN COORDINATES (ANGSTROEM)
---------------------------------
  O      7.770450    4.800082    4.070324
  H      7.497758    5.570889    4.641151
  H      8.609183    4.486856    4.435333
  O      7.393469    6.858434    2.339329
  H      7.727407    6.014620    2.711977
  H      7.951598    7.038906    1.571885
  O      4.842779    3.649618    1.460946
  H      3.920024    3.366827    1.398718
  H      5.067949    3.482005    2.406416
  O      4.351892    5.995510    4.449056
  H      4.395635    6.195105    3.478901
  H      4.624572    5.053952    4.473455
  O      5.461821    3.513371    4.082567
  H      5.426217    2.705859    4.611792
  H      6.399390    3.833682    4.138359
  O      6.747416    7.022402    5.069213
  H      5.816090    6.709955    4.911377
  H      6.997836    7.402474    4.209393
  O      4.756997    6.352175    1.812805
  H      5.714679    6.555555    1.904076
  H      4.750057    5.393733    1.579708

 Multiplicity           Mult            ....    1
 Number of Electrons    NEL             ....   70
 Basis Dimension        Dim             ....  168

ORBITAL ENERGIES
----------------

  NO   OCC          E(Eh)            E(eV)
   0   2.0000     -19.217727      -522.9409
   1   2.0000     -19.214180      -522.8444
   2   2.0000     -19.214125      -522.8429
   3   2.0000     -19.198885      -522.4282
   4   2.0000     -19.195873      -522.3463
   5   2.0000     -19.186645      -522.0952
   6   2.0000     -19.184710      -522.0425
   7   2.0000      -1.039918       -28.2976
   8   2.0000      -1.024548       -27.8794
   9   2.0000      -1.017534       -27.6885
  10   2.0000      -1.009109       -27.4593
  11   2.0000      -1.004962       -27.3464
  12   2.0000      -0.994979       -27.0747
  13   2.0000      -0.980380       -26.6775
  14   2.0000      -0.563546       -15.3349
  15   2.0000      -0.551136       -14.9972
  16   2.0000      -0.534411       -14.5421
  17   2.0000      -0.527716       -14.3599
  18   2.0000      -0.522224       -14.2104
  19   2.0000      -0.520967       -14.1762
  20   2.0000      -0.517466       -14.0810
  21   2.0000      -0.442990       -12.0544
  22   2.0000      -0.427369       -11.6293
  23   2.0000      -0.415994       -11.3198
  24   2.0000      -0.407063       -11.0767
  25   2.0000      -0.397012       -10.8032
  26   2.0000      -0.392034       -10.6678
  27   2.0000      -0.371486       -10.1087
  28   2.0000      -0.338776        -9.2186
  29   2.0000      -0.331166        -9.0115
  30   2.0000      -0.328153        -8.9295
  31   2.0000      -0.320283        -8.7153
  32   2.0000      -0.317762        -8.6467
  33   2.0000      -0.310958        -8.4616
  34   2.0000      -0.305689        -8.3182
  35   0.0000       0.057202         1.5565
  36   0.0000       0.092862         2.5269
  37   0.0000       0.106983         2.9112
  38   0.0000       0.128129         3.4866
  39   0.0000       0.147345         4.0095

MULLIKEN ATOMIC CHARGES
-----------------------
   0 O :   -0.347184
   1 H :    0.178578
   2 H :    0.231923
   3 O :   -0.338819
   4 H :    0.176927
   5 H :    0.223414
   6 O :   -0.377923
   7 H :    0.212874
   8 H :    0.173827
   9 O :   -0.403253
  10 H :    0.155074
  11 H :    0.165033
  12 O :   -0.343359
  13 H :    0.226015
  14 H :    0.192280
  15 O :   -0.389450
  16 H :    0.168512
  17 H :    0.176629
  18 O :   -0.408766
  19 H :    0.164960
  20 H :    0.162709
Sum of atomic charges:   -0.0000000

LOEWDIN ATOMIC CHARGES
----------------------
   0 O :   -0.079172
   1 H :    0.048845
   2 H :    0.115270
   3 O :   -0.096718
   4 H :    0.058317
   5 H :    0.113245
   6 O :   -0.146131
   7 H :    0.103941
   8 H :    0.041912
   9 O :   -0.161140
  10 H :    0.029840
  11 H :    0.038470
  12 O :   -0.077031
  13 H :    0.112525
  14 H :    0.049528
  15 O :   -0.150283
  16 H :    0.035469
  17 H :    0.058582
  18 O :   -0.167109
  19 H :    0.035989
  20 H :    0.035653

  Mayer bond orders larger than 0.100000
B(  0-O ,  1-H ) :   0.8503 B(  0-O ,  2-H ) :   0.9581 B(  0-O ,  4-H ) :   0.1524
B(  0-O , 14-H ) :   0.1839 B(  1-H , 15-O ) :   0.2209 B(  3-O ,  4-H ) :   0.9013
B(  3-O ,  5-H ) :   0.9617 B(  3-O , 17-H ) :   0.1026 B(  3-O , 19-H ) :   0.1700
B(  6-O ,  7-H ) :   0.9729 B(  6-O ,  8-H ) :   0.8984 B(  6-O , 20-H ) :   0.1928
B(  8-H , 12-O ) :   0.1722 B(  9-O , 10-H ) :   0.8863 B(  9-O , 11-H ) :   0.9208
B(  9-O , 16-H ) :   0.2184 B( 10-H , 18-O ) :   0.2146 B( 11-H , 12-O ) :   0.1546
B( 12-O , 13-H ) :   0.9607 B( 12-O , 14-H ) :   0.8652 B( 15-O , 16-H ) :   0.8797
B( 15-O , 17-H ) :   0.9491 B( 18-O , 19-H ) :   0.9071 B( 18-O , 20-H ) :   0.8983

Dispersion correction           -0.011339986
FINAL SINGLE POINT ENERGY      -534.129126707710

DIPOLE MOMENT
-------------
                                X             Y             Z
Electronic contribution:      0.36832      -0.25312       0.02298
Nuclear contribution   :      1.87177      -2.14147      -0.07986
                        -----------------------------------------
Total Dipole Moment    :      2.24010      -2.39458      -0.05688
                        -----------------------------------------
Magnitude (a.u.)       :      3.27953
Magnitude (Debye)      :      8.33589

Dispersion correction in the Hessian             ... done   (      1.2 sec)

VIBRATIONAL FREQUENCIES
-----------------------

Scaling factor for frequencies =  1.000000000  (already applied!)

   0:         0.00 cm**-1
   1:         0.00 cm**-1
   2:         0.00 cm**-1
   3:         0.00 cm**-1
   4:         0.00 cm**-1
   5:         0.00 cm**-1
   6:        -3.83 cm**-1 ***imaginary mode***
   7:        33.86 cm**-1
   8:        57.38 cm**-1
   9:        77.19 cm**-1
  10:        91.98 cm**-1
  11:        94.55 cm**-1
  12:       185.42 cm**-1
  13:       201.70 cm**-1
  14:       211.32 cm**-1
  15:       233.68 cm**-1
  16:       235.42 cm**-1
  17:       243.28 cm**-1
  18:       247.07 cm**-1
  19:       247.85 cm**-1
  20:       262.58 cm**-1
  21:       269.50 cm**-1
  22:       292.88 cm**-1
  23:       300.28 cm**-1
  24:       306.85 cm**-1
  25:       369.20 cm**-1
  26:       412.12 cm**-1
  27:       445.82 cm**-1
  28:       517.91 cm**-1
  29:       545.41 cm**-1
  30:       593.56 cm**-1
  31:       611.86 cm**-1
  32:       616.24 cm**-1
  33:       678.25 cm**-1
  34:       717.98 cm**-1
  35:       733.21 cm**-1
  36:       793.53 cm**-1
  37:       839.63 cm**-1
  38:       924.74 cm**-1
  39:       937.09 cm**-1
  40:      1002.14 cm**-1
  41:      1056.78 cm**-1
  42:      1584.02 cm**-1
  43:      1601.07 cm**-1
  44:      1622.65 cm**-1
  45:      1651.29 cm**-1
  46:      1673.80 cm**-1
  47:      1674.96 cm**-1
  48:      1697.85 cm**-1
  49:      3173.52 cm**-1
  50:      3266.16 cm**-1
  51:      3318.59 cm**-1
  52:      3338.20 cm**-1
  53:      3419.28 cm**-1
  54:      3474.83 cm**-1
  55:      3496.88 cm**-1
  56:      3567.10 cm**-1
  57:      3574.73 cm**-1
  58:      3733.31 cm**-1
  59:      3859.19 cm**-1
  60:      3867.63 cm**-1
  61:      3876.58 cm**-1
  62:      3879.02 cm**-1

IR SPECTRUM
-----------

 Mode    freq (cm**-1)   T**2         TX         TY         TZ
-------------------------------------------------------------------
   7:        33.86    7.171536  (  1.543575   0.857741  -2.013254)
   8:        57.38    6.771352  (  0.735859  -2.400662  -0.683143)
   9:        77.19    2.250110  ( -1.399036  -0.387377   0.377819)
  10:        91.98   11.141576  (  2.176509   1.472295  -2.058333)
  11:        94.55    3.325879  ( -1.422747   1.037189   0.475298)
  12:       185.42   85.841694  ( -8.413067  -0.269154  -3.871635)
  13:       201.70   49.224234  (  2.324012  -4.373646  -4.969348)
  14:       211.32   21.419825  (  0.633696  -3.901477  -2.407641)
  15:       233.68   30.280357  ( -1.924040   4.619981  -2.287838)
  16:       235.42   19.991292  ( -1.427778   3.963444   1.497949)
  17:       243.28   65.046388  (  0.753783   5.851733   5.498674)
  18:       247.07   55.294674  (  1.286012   6.847300   2.599101)
  19:       247.85   54.625781  (  1.973270   7.094113   0.636822)
  20:       262.58   67.010428  ( -5.406105  -3.464192  -5.077777)
  21:       269.50   33.066528  ( -0.951833  -5.204888  -2.251596)
  22:       292.88   99.356859  ( -7.298657   2.647962   6.250980)
  23:       300.28   55.683276  (  2.914722   6.551193  -2.066286)
  24:       306.85  109.278207  ( -5.600129   6.949561   5.442459)
  25:       369.20  115.453439  (  4.612064  -9.049615  -3.505250)
  26:       412.12  289.085975  (  3.958526 -11.040883  12.309141)
  27:       445.82  208.785488  ( -6.309551   0.732755  12.978371)
  28:       517.91  290.658372  ( -5.825956 -15.661080  -3.383370)
  29:       545.41   97.658233  ( -9.630127   0.296398   2.197963)
  30:       593.56   95.866236  (  2.958338   8.113711   4.613259)
  31:       611.86  106.081853  ( -2.781458   9.878201   0.875497)
  32:       616.24   38.693295  ( -0.246501   0.788931  -6.165235)
  33:       678.25  162.880995  (  7.933816   0.549886   9.981642)
  34:       717.98  103.608456  (  8.165333   3.135337  -5.206290)
  35:       733.21  141.279394  (  5.102328 -10.563830   1.910792)
  36:       793.53  297.107351  ( -7.834278 -11.990470   9.589581)
  37:       839.63  324.876513  (  5.247467  15.556586   7.438632)
  38:       924.74  308.691072  ( -4.422415   6.430732  15.740997)
  39:       937.09   77.781607  ( -1.007217  -1.012713   8.702961)
  40:      1002.14  304.912272  (-17.252993   0.466062  -2.651278)
  41:      1056.78   92.870854  (  1.165515  -5.495988   7.829850)
  42:      1584.02  100.005521  (  1.384641  -1.283207  -9.820472)
  43:      1601.07   51.269479  ( -4.171466   5.732133   1.005485)
  44:      1622.65  152.363774  ( 11.862148  -3.393305   0.372418)
  45:      1651.29  103.616526  (  3.715961   7.451055  -5.855761)
  46:      1673.80   81.865991  ( -7.643992   3.749726  -3.061852)
  47:      1674.96  112.898136  ( -4.142365  -0.468517  -9.773405)
  48:      1697.85  180.777215  ( -4.835079   8.245336   9.455880)
  49:      3173.52  533.429675  ( 15.324856 -16.742794  -4.272855)
  50:      3266.16  1969.299590  (-21.328081 -26.203155 -28.771639)
  51:      3318.59  1204.838426  (-34.636935   0.886454   2.082161)
  52:      3338.20  461.604516  ( 15.018430   6.781474 -13.786330)
  53:      3419.28  1442.488666  ( 13.124911  25.616951 -24.778967)
  54:      3474.83  897.757497  ( -5.661749 -19.440801 -22.085230)
  55:      3496.88  1108.387992  (-30.075857   3.811964 -13.758625)
  56:      3567.10  992.976274  ( -2.468674  30.157675  -8.797532)
  57:      3574.73  447.777008  ( -8.300525  19.045986  -4.016059)
  58:      3733.31  402.080002  (  7.610868   5.821043 -17.614487)
  59:      3859.19  109.457804  ( -9.534890  -1.553036  -4.016436)
  60:      3867.63  146.718148  ( 10.479040  -5.003555   3.445621)
  61:      3876.58  208.200376  (  3.919924  11.576027  -7.670083)
  62:      3879.02  115.463511  ( -5.407110  -2.613828   8.910363)

--------------------------
THERMOCHEMISTRY AT 298.15K
--------------------------

Temperature         ... 298.15 K
Pressure            ... 1.00 atm
Total Mass          ... 126.10 AMU

Throughout the following assumptions are being made:
  (1) The electronic state is orbitally nondegenerate
  (2) There are no thermally accessible electronically excited states
  (3) Hindered rotations indicated by low frequency modes are not
      treated as such but are treated as vibrations and this may
      cause some error
  (4) All equations used are the standard statistical mechanics
      equations for an ideal gas
  (5) All vibrations are strictly harmonic

freq.      33.86  E(vib)   ...       0.55
freq.      57.38  E(vib)   ...       0.51
freq.      77.19  E(vib)   ...       0.49
freq.      91.98  E(vib)   ...       0.47
freq.      94.55  E(vib)   ...       0.47
freq.     185.42  E(vib)   ...       0.37
freq.     201.70  E(vib)   ...       0.35
freq.     211.32  E(vib)   ...       0.34
freq.     233.68  E(vib)   ...       0.32
freq.     235.42  E(vib)   ...       0.32
freq.     243.28  E(vib)   ...       0.31
freq.     247.07  E(vib)   ...       0.31
freq.     247.85  E(vib)   ...       0.31
freq.     262.58  E(vib)   ...       0.29
freq.     269.50  E(vib)   ...       0.29
freq.     292.88  E(vib)   ...       0.27
freq.     300.28  E(vib)   ...       0.26
freq.     306.85  E(vib)   ...       0.26
freq.     369.20  E(vib)   ...       0.21
freq.     412.12  E(vib)   ...       0.19
freq.     445.82  E(vib)   ...       0.17
freq.     517.91  E(vib)   ...       0.13
freq.     545.41  E(vib)   ...       0.12
freq.     593.56  E(vib)   ...       0.10
freq.     611.86  E(vib)   ...       0.10
freq.     616.24  E(vib)   ...       0.09
freq.     678.25  E(vib)   ...       0.08
freq.     717.98  E(vib)   ...       0.07
freq.     733.21  E(vib)   ...       0.06
freq.     793.53  E(vib)   ...       0.05
freq.     839.63  E(vib)   ...       0.04
freq.     924.74  E(vib)   ...       0.03
freq.     937.09  E(vib)   ...       0.03
freq.    1002.14  E(vib)   ...       0.02
freq.    1056.78  E(vib)   ...       0.02
freq.    1584.02  E(vib)   ...       0.00
freq.    1601.07  E(vib)   ...       0.00
freq.    1622.65  E(vib)   ...       0.00
freq.    1651.29  E(vib)   ...       0.00
freq.    1673.80  E(vib)   ...       0.00
freq.    1674.96  E(vib)   ...       0.00
freq.    1697.85  E(vib)   ...       0.00
freq.    3173.52  E(vib)   ...       0.00
freq.    3266.16  E(vib)   ...       0.00
freq.    3318.59  E(vib)   ...       0.00
freq.    3338.20  E(vib)   ...       0.00
freq.    3419.28  E(vib)   ...       0.00
freq.    3474.83  E(vib)   ...       0.00
freq.    3496.88  E(vib)   ...       0.00
freq.    3567.10  E(vib)   ...       0.00
freq.    3574.73  E(vib)   ...       0.00
freq.    3733.31  E(vib)   ...       0.00
freq.    3859.19  E(vib)   ...       0.00
freq.    3867.63  E(vib)   ...       0.00
freq.    3876.58  E(vib)   ...       0.00
freq.    3879.02  E(vib)   ...       0.00

------------
INNER ENERGY
------------

The inner energy is: U= E(el) + E(ZPE) + E(vib) + E(rot) + E(trans)
    E(el)   - is the total energy from the electronic structure calculation
              = E(kin-el) + E(nuc-el) + E(el-el) + E(nuc-nuc)
    E(ZPE)  - the the zero temperature vibrational energy from the frequency calculation
    E(vib)  - the the finite temperature correction to E(ZPE) due to population
              of excited vibrational states
    E(rot)  - is the rotational thermal energy
    E(trans)- is the translational thermal energy

Summary of contributions to the inner energy U:
Electronic energy                ...   -534.12912671 Eh
Zero point energy                ...      0.17482409 Eh     109.70 kcal/mol
Thermal vibrational correction   ...      0.01276585 Eh       8.01 kcal/mol
Thermal rotational correction    ...      0.00141627 Eh       0.89 kcal/mol
Thermal translational correction ...      0.00141627 Eh       0.89 kcal/mol
-----------------------------------------------------------------------
Total thermal energy                   -533.93870422 Eh

Summary of corrections to the electronic energy:
(perhaps to be used in another calculation)
Total thermal correction                  0.01559839 Eh       9.79 kcal/mol
Non-thermal (ZPE) correction              0.17482409 Eh     109.70 kcal/mol
-----------------------------------------------------------------------
Total correction                          0.19042249 Eh     119.49 kcal/mol

--------
ENTHALPY
--------

The enthalpy is H = U + kB*T
                kB is Boltzmann's constant
Total free energy                 ...   -533.93870422 Eh
Thermal Enthalpy correction       ...      0.00094421 Eh       0.59 kcal/mol
-----------------------------------------------------------------------
Total Enthalpy                    ...   -533.93776001 Eh

Note: Only C1 symmetry has been detected, increase convergence thresholds
      if your molecule has a higher symmetry. Symmetry factor of 1.0 is
      used for the rotational entropy correction.

Note: Rotational entropy computed according to Herzberg
Infrared and Raman Spectra, Chapter V,1, Van Nostrand Reinhold, 1945
Point Group:  C1, Symmetry Number:   1
Rotational constants in cm-1:     0.048471     0.035747     0.032663

Vibrational entropy computed according to the QRRHO of S. Grimme
Chem.Eur.J. 2012 18 9955

-------
ENTROPY
-------

The entropy contributions are T*S = T*(S(el)+S(vib)+S(rot)+S(trans))
     S(el)   - electronic entropy
     S(vib)  - vibrational entropy
     S(rot)  - rotational entropy
     S(trans)- translational entropy
The entropies will be listed as mutliplied by the temperature to get
units of energy

Electronic entropy                ...      0.00000000 Eh      0.00 kcal/mol
Vibrational entropy               ...      0.02242824 Eh     14.07 kcal/mol
Rotational entropy                ...      0.01412768 Eh      8.87 kcal/mol
Translational entropy             ...      0.01919974 Eh     12.05 kcal/mol
-----------------------------------------------------------------------
Final entropy term                ...      0.05575566 Eh     34.99 kcal/mol

In case the symmetry of your molecule has not been determined correctly
or in case you have a reason to use a different symmetry number we print
out the resulting rotational entropy values for sn=1,12 :
 --------------------------------------------------------
|  sn= 1 | S(rot)=       0.01412768 Eh      8.87 kcal/mol|
|  sn= 2 | S(rot)=       0.01347322 Eh      8.45 kcal/mol|
|  sn= 3 | S(rot)=       0.01309039 Eh      8.21 kcal/mol|
|  sn= 4 | S(rot)=       0.01281877 Eh      8.04 kcal/mol|
|  sn= 5 | S(rot)=       0.01260808 Eh      7.91 kcal/mol|
|  sn= 6 | S(rot)=       0.01243593 Eh      7.80 kcal/mol|
|  sn= 7 | S(rot)=       0.01229039 Eh      7.71 kcal/mol|

                             ****ORCA TERMINATED NORMALLY****
TOTAL RUN TIME: 0 days 0 hours 22 minutes 23 seconds 532 msec
