                         Program Version 4.2.1 -  RELEASE  -
|  1> ! PBE0 D3BJ def2-SVP LooseOpt Freq CPCM(water) PAL4
|  2> %geom MaxIter 500 end
|  3> %maxcore 4000
|  4> %cpcm
|  5>     smd true
|  6>     SMDsolvent "water"
|  7> end
|  8> *xyzfile 0 1 septamer8.xyz
|  9>
| 10>                          ****END OF INPUT****
 Total Charge           Charge          ....    0
 Multiplicity           Mult            ....    1
 Number of Electrons    NEL             ....   70
Dispersion correction           -0.008578923
FINAL SINGLE POINT ENERGY      -534.051470603470
Dispersion correction            ... done
Dispersion correction           -0.008642158
FINAL SINGLE POINT ENERGY      -534.064455992819
Dispersion correction            ... done
Dispersion correction           -0.008838531
FINAL SINGLE POINT ENERGY      -534.067279805106
Dispersion correction            ... done
FINAL SINGLE POINT ENERGY      -534.070063403528
FINAL SINGLE POINT ENERGY      -534.072650864822
FINAL SINGLE POINT ENERGY      -534.074534800015
FINAL SINGLE POINT ENERGY      -534.077073941935
FINAL SINGLE POINT ENERGY      -534.079251021110
FINAL SINGLE POINT ENERGY      -534.081587076073
FINAL SINGLE POINT ENERGY      -534.083820493627
FINAL SINGLE POINT ENERGY      -534.128508586715
FINAL SINGLE POINT ENERGY      -534.128572240683
FINAL SINGLE POINT ENERGY      -534.128615898531
FINAL SINGLE POINT ENERGY      -534.128473724298
FINAL SINGLE POINT ENERGY      -534.128497651489
FINAL SINGLE POINT ENERGY      -534.128513896119
FINAL SINGLE POINT ENERGY      -534.128528829802
Dispersion correction           -0.011298978
FINAL SINGLE POINT ENERGY      -534.128545552313
Dispersion correction            ... done
Dispersion correction           -0.011296227
FINAL SINGLE POINT ENERGY      -534.128545268482
Dispersion correction            ... done
                    ***********************HURRAY********************

CARTESIAN COORDINATES (ANGSTROEM)
---------------------------------
  O      7.365987    5.086687    4.406453
  H      6.851432    5.736612    4.969261
  H      8.185522    4.909473    4.887274
  O      5.785223    6.864073    5.484280
  H      4.951228    6.441383    5.134215
  H      5.949738    7.588479    4.865132
  O      7.062436    7.071687    2.585471
  H      7.333150    6.300496    3.132390
  H      7.565862    6.968731    1.767200
  O      4.993309    3.609871    1.384267
  H      4.101149    3.270867    1.234358
  H      5.157800    3.395887    2.332631
  O      3.758151    5.572630    4.373053
  H      3.949628    5.875539    3.446099
  H      4.184166    4.690131    4.386310
  O      5.374868    3.378299    4.039723
  H      5.445224    2.550459    4.531524
  H      6.217825    3.869886    4.216308
  O      4.554479    6.242531    1.907248
  H      5.457711    6.573860    2.124202
  H      4.712403    5.313959    1.612271

 Multiplicity           Mult            ....    1
 Number of Electrons    NEL             ....   70
 Basis Dimension        Dim             ....  168

ORBITAL ENERGIES
----------------

  NO   OCC          E(Eh)            E(eV)
   0   2.0000     -19.215939      -522.8923
   1   2.0000     -19.214075      -522.8416
   2   2.0000     -19.204349      -522.5769
   3   2.0000     -19.201883      -522.5098
   4   2.0000     -19.199371      -522.4414
   5   2.0000     -19.187547      -522.1197
   6   2.0000     -19.184181      -522.0281
   7   2.0000      -1.038638       -28.2628
   8   2.0000      -1.022429       -27.8217
   9   2.0000      -1.015133       -27.6232
  10   2.0000      -1.013188       -27.5703
  11   2.0000      -1.004552       -27.3352
  12   2.0000      -0.994759       -27.0688
  13   2.0000      -0.980421       -26.6786
  14   2.0000      -0.560170       -15.2430
  15   2.0000      -0.547105       -14.8875
  16   2.0000      -0.534927       -14.5561
  17   2.0000      -0.528314       -14.3762
  18   2.0000      -0.523465       -14.2442
  19   2.0000      -0.520116       -14.1531
  20   2.0000      -0.518874       -14.1193
  21   2.0000      -0.444614       -12.0986
  22   2.0000      -0.426400       -11.6029
  23   2.0000      -0.413345       -11.2477
  24   2.0000      -0.405885       -11.0447
  25   2.0000      -0.397725       -10.8226
  26   2.0000      -0.394266       -10.7285
  27   2.0000      -0.372717       -10.1421
  28   2.0000      -0.337045        -9.1715
  29   2.0000      -0.329954        -8.9785
  30   2.0000      -0.324572        -8.8321
  31   2.0000      -0.321041        -8.7360
  32   2.0000      -0.318361        -8.6630
  33   2.0000      -0.311778        -8.4839
  34   2.0000      -0.305848        -8.3225
  35   0.0000       0.056253         1.5307
  36   0.0000       0.093438         2.5426
  37   0.0000       0.107196         2.9169
  38   0.0000       0.125347         3.4109
  39   0.0000       0.131669         3.5829

MULLIKEN ATOMIC CHARGES
-----------------------
   0 O :   -0.350198
   1 H :    0.190635
   2 H :    0.230977
   3 O :   -0.380762
   4 H :    0.175649
   5 H :    0.201168
   6 O :   -0.358714
   7 H :    0.163989
   8 H :    0.215839
   9 O :   -0.374908
  10 H :    0.211620
  11 H :    0.177721
  12 O :   -0.404212
  13 H :    0.157517
  14 H :    0.167952
  15 O :   -0.347152
  16 H :    0.225871
  17 H :    0.191707
  18 O :   -0.411636
  19 H :    0.157136
  20 H :    0.159801
Sum of atomic charges:    0.0000000

LOEWDIN ATOMIC CHARGES
----------------------
   0 O :   -0.076498
   1 H :    0.044463
   2 H :    0.113715
   3 O :   -0.128039
   4 H :    0.037367
   5 H :    0.089210
   6 O :   -0.130564
   7 H :    0.045674
   8 H :    0.107000
   9 O :   -0.143210
  10 H :    0.103024
  11 H :    0.043083
  12 O :   -0.157020
  13 H :    0.029286
  14 H :    0.040202
  15 O :   -0.078409
  16 H :    0.112217
  17 H :    0.049657
  18 O :   -0.166560
  19 H :    0.031917
  20 H :    0.033485

  Mayer bond orders larger than 0.100000
B(  0-O ,  1-H ) :   0.8383 B(  0-O ,  2-H ) :   0.9581 B(  0-O ,  7-H ) :   0.1699
B(  0-O , 17-H ) :   0.1837 B(  1-H ,  3-O ) :   0.2208 B(  3-O ,  4-H ) :   0.8672
B(  3-O ,  5-H ) :   0.9703 B(  4-H , 12-O ) :   0.2249 B(  6-O ,  7-H ) :   0.8994
B(  6-O ,  8-H ) :   0.9668 B(  6-O , 19-H ) :   0.1932 B(  9-O , 10-H ) :   0.9734
B(  9-O , 11-H ) :   0.8998 B(  9-O , 20-H ) :   0.1956 B( 11-H , 15-O ) :   0.1678
B( 12-O , 13-H ) :   0.8817 B( 12-O , 14-H ) :   0.9224 B( 13-H , 18-O ) :   0.2179
B( 14-H , 15-O ) :   0.1511 B( 15-O , 16-H ) :   0.9608 B( 15-O , 17-H ) :   0.8662
B( 18-O , 19-H ) :   0.8967 B( 18-O , 20-H ) :   0.8959

Dispersion correction           -0.011302264
FINAL SINGLE POINT ENERGY      -534.128584701367

DIPOLE MOMENT
-------------
                                X             Y             Z
Electronic contribution:      0.34983      -0.19317       0.19657
Nuclear contribution   :      1.89273      -1.80272       0.23155
                        -----------------------------------------
Total Dipole Moment    :      2.24256      -1.99589       0.42812
                        -----------------------------------------
Magnitude (a.u.)       :      3.03249
Magnitude (Debye)      :      7.70796

Dispersion correction in the Hessian             ... done   (      1.1 sec)

VIBRATIONAL FREQUENCIES
-----------------------

Scaling factor for frequencies =  1.000000000  (already applied!)

   0:         0.00 cm**-1
   1:         0.00 cm**-1
   2:         0.00 cm**-1
   3:         0.00 cm**-1
   4:         0.00 cm**-1
   5:         0.00 cm**-1
   6:       -70.75 cm**-1 ***imaginary mode***
   7:        15.56 cm**-1
   8:        49.29 cm**-1
   9:        57.22 cm**-1
  10:        79.70 cm**-1
  11:        96.71 cm**-1
  12:       172.88 cm**-1
  13:       218.52 cm**-1
  14:       231.13 cm**-1
  15:       234.00 cm**-1
  16:       241.83 cm**-1
  17:       251.00 cm**-1
  18:       258.90 cm**-1
  19:       265.62 cm**-1
  20:       276.29 cm**-1
  21:       286.51 cm**-1
  22:       301.30 cm**-1
  23:       305.39 cm**-1
  24:       326.17 cm**-1
  25:       363.65 cm**-1
  26:       375.84 cm**-1
  27:       397.50 cm**-1
  28:       451.41 cm**-1
  29:       499.76 cm**-1
  30:       535.60 cm**-1
  31:       617.78 cm**-1
  32:       642.77 cm**-1
  33:       712.87 cm**-1
  34:       723.29 cm**-1
  35:       749.60 cm**-1
  36:       835.24 cm**-1
  37:       842.62 cm**-1
  38:       916.80 cm**-1
  39:       945.44 cm**-1
  40:      1029.78 cm**-1
  41:      1079.28 cm**-1
  42:      1596.92 cm**-1
  43:      1602.40 cm**-1
  44:      1644.35 cm**-1
  45:      1646.17 cm**-1
  46:      1666.87 cm**-1
  47:      1678.60 cm**-1
  48:      1704.17 cm**-1
  49:      3080.97 cm**-1
  50:      3201.35 cm**-1
  51:      3292.11 cm**-1
  52:      3320.66 cm**-1
  53:      3409.06 cm**-1
  54:      3435.48 cm**-1
  55:      3472.35 cm**-1
  56:      3516.78 cm**-1
  57:      3584.40 cm**-1
  58:      3856.78 cm**-1
  59:      3869.31 cm**-1
  60:      3871.74 cm**-1
  61:      3872.85 cm**-1
  62:      3885.79 cm**-1

IR SPECTRUM
-----------

 Mode    freq (cm**-1)   T**2         TX         TY         TZ
-------------------------------------------------------------------
   7:        15.56   14.558366  ( -1.052602  -1.780591  -3.206226)
   8:        49.29   19.317204  ( -0.614893  -3.433866  -2.673513)
   9:        57.22    3.185845  ( -1.269204   0.503179  -1.149686)
  10:        79.70    1.516570  ( -0.831658   0.075228  -0.905127)
  11:        96.71    2.022976  ( -0.592134   1.143871   0.603252)
  12:       172.88   76.380090  (  6.082006  -3.646421  -5.108122)
  13:       218.52   30.189221  (  3.443890   4.197279   0.843619)
  14:       231.13   26.876944  (  4.659081  -2.134933   0.782285)
  15:       234.00   45.958739  ( -1.078946   2.650945   6.145495)
  16:       241.83   11.830615  (  0.777913   0.069805   3.349716)
  17:       251.00  101.556058  ( -1.252774   9.292667   3.692283)
  18:       258.90   46.755777  (  6.527603   1.734923  -1.065936)
  19:       265.62   43.780270  ( -5.403442  -1.318050  -3.584108)
  20:       276.29   58.010156  (  7.382024   0.115549  -1.871503)
  21:       286.51  136.199503  (  3.407326   9.923012   5.111111)
  22:       301.30  156.617523  (-10.557546  -0.264750   6.714585)
  23:       305.39   17.006524  (  0.444290   2.640743  -3.136177)
  24:       326.17  113.064892  ( -0.691299  -9.948249  -3.690438)
  25:       363.65  184.919933  ( -6.570413   6.690729   9.848033)
  26:       375.84  171.789209  (  1.029952 -10.752322  -7.424013)
  27:       397.50  322.783466  (  6.856354 -12.375279  11.073678)
  28:       451.41  104.868195  ( -1.331447  -6.786791   7.552147)
  29:       499.76  185.083437  (-11.457920  -7.001199   2.186942)
  30:       535.60   61.139335  (  2.294087   7.151569   2.175213)
  31:       617.78   27.273083  (  3.573945   0.538708  -3.769588)
  32:       642.77   20.799096  ( -0.978589  -3.660659  -2.537920)
  33:       712.87   71.153571  ( -8.275634   1.614443   0.247048)
  34:       723.29  126.871023  (  8.529215   1.795784   7.134331)
  35:       749.60  191.777226  (  5.277004 -12.019136   4.412577)
  36:       835.24  468.414962  ( -5.544081 -17.657038 -11.220836)
  37:       842.62  253.979634  (  9.714546  12.175927  -3.369574)
  38:       916.80  249.394428  ( -8.123368  -0.229648  13.540775)
  39:       945.44  244.413871  (  5.048671  -0.028676 -14.796080)
  40:      1029.78  156.799367  (-11.971570  -3.590617  -0.767041)
  41:      1079.28  111.781796  (  6.316589  -5.192331   6.702403)
  42:      1596.92  109.566241  ( -1.533053  -3.852382  -9.611199)
  43:      1602.40   62.872882  ( -6.616092   3.097214  -3.083419)
  44:      1644.35  147.007223  ( 11.269575   0.211057  -4.467589)
  45:      1646.17  128.878290  ( -4.594630   9.155093  -4.894073)
  46:      1666.87   90.226088  (  4.038328  -2.813637   8.124127)
  47:      1678.60   57.108222  (  6.944456  -2.957337  -0.370014)
  48:      1704.17  159.117280  ( -7.096965   6.122334   8.442002)
  49:      3080.97  866.120170  ( 25.199040 -14.147313  -5.566157)
  50:      3201.35  1922.601198  ( -7.732614 -26.606952 -33.983496)
  51:      3292.11  824.546208  (-21.699137 -11.504234  14.877710)
  52:      3320.66  1042.361340  ( 30.004486  10.552785   5.543545)
  53:      3409.06  1462.855665  ( 17.431391  32.087516 -11.375130)
  54:      3435.48  1472.910832  ( 28.199351  -6.160824  25.293313)
  55:      3472.35  807.092361  ( -2.888538  12.210070  25.488486)
  56:      3516.78  781.604558  ( -1.333197  25.448101 -11.498752)
  57:      3584.40  749.199007  (-12.015427  24.184475  -4.465388)
  58:      3856.78  136.440700  (  3.237436   8.815363  -6.946156)
  59:      3869.31  129.466493  ( -3.210501   2.455869 -10.636159)
  60:      3871.74  139.308033  (-11.181458   0.959099   3.655564)
  61:      3872.85  119.104524  ( -9.669287  -1.714757  -4.761200)
  62:      3885.79  153.190477  (  1.736876  11.337973  -4.650172)

--------------------------
THERMOCHEMISTRY AT 298.15K
--------------------------

Temperature         ... 298.15 K
Pressure            ... 1.00 atm
Total Mass          ... 126.10 AMU

Throughout the following assumptions are being made:
  (1) The electronic state is orbitally nondegenerate
  (2) There are no thermally accessible electronically excited states
  (3) Hindered rotations indicated by low frequency modes are not
      treated as such but are treated as vibrations and this may
      cause some error
  (4) All equations used are the standard statistical mechanics
      equations for an ideal gas
  (5) All vibrations are strictly harmonic

freq.      15.56  E(vib)   ...       0.57
freq.      49.29  E(vib)   ...       0.52
freq.      57.22  E(vib)   ...       0.51
freq.      79.70  E(vib)   ...       0.49
freq.      96.71  E(vib)   ...       0.46
freq.     172.88  E(vib)   ...       0.38
freq.     218.52  E(vib)   ...       0.33
freq.     231.13  E(vib)   ...       0.32
freq.     234.00  E(vib)   ...       0.32
freq.     241.83  E(vib)   ...       0.31
freq.     251.00  E(vib)   ...       0.30
freq.     258.90  E(vib)   ...       0.30
freq.     265.62  E(vib)   ...       0.29
freq.     276.29  E(vib)   ...       0.28
freq.     286.51  E(vib)   ...       0.27
freq.     301.30  E(vib)   ...       0.26
freq.     305.39  E(vib)   ...       0.26
freq.     326.17  E(vib)   ...       0.24
freq.     363.65  E(vib)   ...       0.22
freq.     375.84  E(vib)   ...       0.21
freq.     397.50  E(vib)   ...       0.20
freq.     451.41  E(vib)   ...       0.16
freq.     499.76  E(vib)   ...       0.14
freq.     535.60  E(vib)   ...       0.12
freq.     617.78  E(vib)   ...       0.09
freq.     642.77  E(vib)   ...       0.09
freq.     712.87  E(vib)   ...       0.07
freq.     723.29  E(vib)   ...       0.07
freq.     749.60  E(vib)   ...       0.06
freq.     835.24  E(vib)   ...       0.04
freq.     842.62  E(vib)   ...       0.04
freq.     916.80  E(vib)   ...       0.03
freq.     945.44  E(vib)   ...       0.03
freq.    1029.78  E(vib)   ...       0.02
freq.    1079.28  E(vib)   ...       0.02
freq.    1596.92  E(vib)   ...       0.00
freq.    1602.40  E(vib)   ...       0.00
freq.    1644.35  E(vib)   ...       0.00
freq.    1646.17  E(vib)   ...       0.00
freq.    1666.87  E(vib)   ...       0.00
freq.    1678.60  E(vib)   ...       0.00
freq.    1704.17  E(vib)   ...       0.00
freq.    3080.97  E(vib)   ...       0.00
freq.    3201.35  E(vib)   ...       0.00
freq.    3292.11  E(vib)   ...       0.00
freq.    3320.66  E(vib)   ...       0.00
freq.    3409.06  E(vib)   ...       0.00
freq.    3435.48  E(vib)   ...       0.00
freq.    3472.35  E(vib)   ...       0.00
freq.    3516.78  E(vib)   ...       0.00
freq.    3584.40  E(vib)   ...       0.00
freq.    3856.78  E(vib)   ...       0.00
freq.    3869.31  E(vib)   ...       0.00
freq.    3871.74  E(vib)   ...       0.00
freq.    3872.85  E(vib)   ...       0.00
freq.    3885.79  E(vib)   ...       0.00

------------
INNER ENERGY
------------

The inner energy is: U= E(el) + E(ZPE) + E(vib) + E(rot) + E(trans)
    E(el)   - is the total energy from the electronic structure calculation
              = E(kin-el) + E(nuc-el) + E(el-el) + E(nuc-nuc)
    E(ZPE)  - the the zero temperature vibrational energy from the frequency calculation
    E(vib)  - the the finite temperature correction to E(ZPE) due to population
              of excited vibrational states
    E(rot)  - is the rotational thermal energy
    E(trans)- is the translational thermal energy

Summary of contributions to the inner energy U:
Electronic energy                ...   -534.12858470 Eh
Zero point energy                ...      0.17449926 Eh     109.50 kcal/mol
Thermal vibrational correction   ...      0.01285334 Eh       8.07 kcal/mol
Thermal rotational correction    ...      0.00141627 Eh       0.89 kcal/mol
Thermal translational correction ...      0.00141627 Eh       0.89 kcal/mol
-----------------------------------------------------------------------
Total thermal energy                   -533.93839956 Eh

Summary of corrections to the electronic energy:
(perhaps to be used in another calculation)
Total thermal correction                  0.01568589 Eh       9.84 kcal/mol
Non-thermal (ZPE) correction              0.17449926 Eh     109.50 kcal/mol
-----------------------------------------------------------------------
Total correction                          0.19018514 Eh     119.34 kcal/mol

--------
ENTHALPY
--------

The enthalpy is H = U + kB*T
                kB is Boltzmann's constant
Total free energy                 ...   -533.93839956 Eh
Thermal Enthalpy correction       ...      0.00094421 Eh       0.59 kcal/mol
-----------------------------------------------------------------------
Total Enthalpy                    ...   -533.93745535 Eh

Note: Only C1 symmetry has been detected, increase convergence thresholds
      if your molecule has a higher symmetry. Symmetry factor of 1.0 is
      used for the rotational entropy correction.

Note: Rotational entropy computed according to Herzberg
Infrared and Raman Spectra, Chapter V,1, Van Nostrand Reinhold, 1945
Point Group:  C1, Symmetry Number:   1
Rotational constants in cm-1:     0.047045     0.035750     0.032811

Vibrational entropy computed according to the QRRHO of S. Grimme
Chem.Eur.J. 2012 18 9955

-------
ENTROPY
-------

The entropy contributions are T*S = T*(S(el)+S(vib)+S(rot)+S(trans))
     S(el)   - electronic entropy
     S(vib)  - vibrational entropy
     S(rot)  - rotational entropy
     S(trans)- translational entropy
The entropies will be listed as mutliplied by the temperature to get
units of energy

Electronic entropy                ...      0.00000000 Eh      0.00 kcal/mol
Vibrational entropy               ...      0.02281764 Eh     14.32 kcal/mol
Rotational entropy                ...      0.01413958 Eh      8.87 kcal/mol
Translational entropy             ...      0.01919974 Eh     12.05 kcal/mol
-----------------------------------------------------------------------
Final entropy term                ...      0.05615696 Eh     35.24 kcal/mol

In case the symmetry of your molecule has not been determined correctly
or in case you have a reason to use a different symmetry number we print
out the resulting rotational entropy values for sn=1,12 :
 --------------------------------------------------------
|  sn= 1 | S(rot)=       0.01413958 Eh      8.87 kcal/mol|
|  sn= 2 | S(rot)=       0.01348513 Eh      8.46 kcal/mol|
|  sn= 3 | S(rot)=       0.01310229 Eh      8.22 kcal/mol|
|  sn= 4 | S(rot)=       0.01283067 Eh      8.05 kcal/mol|
|  sn= 5 | S(rot)=       0.01261998 Eh      7.92 kcal/mol|
|  sn= 6 | S(rot)=       0.01244784 Eh      7.81 kcal/mol|
|  sn= 7 | S(rot)=       0.01230229 Eh      7.72 kcal/mol|

                             ****ORCA TERMINATED NORMALLY****
TOTAL RUN TIME: 0 days 0 hours 20 minutes 4 seconds 728 msec
