                         Program Version 4.2.1 -  RELEASE  -
|  1> ! PBE0 D3BJ def2-SVP LooseOpt Freq CPCM(water) PAL4
|  2> %geom MaxIter 500 end
|  3> %maxcore 4000
|  4> %cpcm
|  5>     smd true
|  6>     SMDsolvent "water"
|  7> end
|  8> *xyzfile 0 1 septamer4.xyz
|  9>
| 10>                          ****END OF INPUT****
 Total Charge           Charge          ....    0
 Multiplicity           Mult            ....    1
 Number of Electrons    NEL             ....   70
Dispersion correction           -0.008739515
FINAL SINGLE POINT ENERGY      -534.062787405605
Dispersion correction            ... done
Dispersion correction           -0.008903134
FINAL SINGLE POINT ENERGY      -534.078124513784
Dispersion correction            ... done
Dispersion correction           -0.009182286
FINAL SINGLE POINT ENERGY      -534.082105821396
Dispersion correction            ... done
FINAL SINGLE POINT ENERGY      -534.085702084525
FINAL SINGLE POINT ENERGY      -534.087796689138
FINAL SINGLE POINT ENERGY      -534.090277471335
FINAL SINGLE POINT ENERGY      -534.092326826844
FINAL SINGLE POINT ENERGY      -534.094370000467
FINAL SINGLE POINT ENERGY      -534.096030517767
FINAL SINGLE POINT ENERGY      -534.097857179329
FINAL SINGLE POINT ENERGY      -534.123887259189
FINAL SINGLE POINT ENERGY      -534.123939086483
FINAL SINGLE POINT ENERGY      -534.123951506573
FINAL SINGLE POINT ENERGY      -534.123833136396
FINAL SINGLE POINT ENERGY      -534.123863739300
FINAL SINGLE POINT ENERGY      -534.123867891362
FINAL SINGLE POINT ENERGY      -534.123721557208
Dispersion correction           -0.010423097
FINAL SINGLE POINT ENERGY      -534.123677366204
Dispersion correction            ... done
Dispersion correction           -0.010438448
FINAL SINGLE POINT ENERGY      -534.123955908965
Dispersion correction            ... done
                    ***********************HURRAY********************

CARTESIAN COORDINATES (ANGSTROEM)
---------------------------------
  O      7.398081    4.627416    3.949352
  H      7.563682    5.464683    4.472686
  H      8.220369    4.122351    4.005529
  O      5.186500    7.447835    5.871526
  H      4.571209    6.834963    5.374483
  H      4.914160    8.329003    5.584672
  O      7.000330    6.647006    2.206577
  H      7.220736    5.762335    2.577323
  H      7.478753    6.701545    1.368532
  O      3.661149    5.809539    4.487388
  H      3.890767    6.033050    3.552545
  H      4.132744    4.956775    4.648683
  O      5.117940    3.574561    4.900887
  H      5.266481    3.509993    5.853590
  H      5.986068    3.893557    4.554597
  O      7.616115    7.064795    4.893218
  H      6.713994    7.238665    5.281424
  H      7.508348    7.310971    3.957028
  O      4.335779    6.394475    1.935325
  H      5.313170    6.525405    1.982676
  H      4.244307    5.547617    1.478718

 Multiplicity           Mult            ....    1
 Number of Electrons    NEL             ....   70
 Basis Dimension        Dim             ....  168

ORBITAL ENERGIES
----------------

  NO   OCC          E(Eh)            E(eV)
   0   2.0000     -19.217323      -522.9299
   1   2.0000     -19.214916      -522.8644
   2   2.0000     -19.199441      -522.4434
   3   2.0000     -19.198621      -522.4210
   4   2.0000     -19.193929      -522.2934
   5   2.0000     -19.191740      -522.2338
   6   2.0000     -19.181806      -521.9635
   7   2.0000      -1.038164       -28.2499
   8   2.0000      -1.021011       -27.7831
   9   2.0000      -1.015071       -27.6215
  10   2.0000      -1.010643       -27.5010
  11   2.0000      -1.002702       -27.2849
  12   2.0000      -0.991216       -26.9724
  13   2.0000      -0.980478       -26.6801
  14   2.0000      -0.562710       -15.3121
  15   2.0000      -0.535420       -14.5695
  16   2.0000      -0.532094       -14.4790
  17   2.0000      -0.528592       -14.3837
  18   2.0000      -0.525696       -14.3049
  19   2.0000      -0.522560       -14.2196
  20   2.0000      -0.519240       -14.1292
  21   2.0000      -0.431688       -11.7468
  22   2.0000      -0.427522       -11.6335
  23   2.0000      -0.424492       -11.5510
  24   2.0000      -0.398447       -10.8423
  25   2.0000      -0.394832       -10.7439
  26   2.0000      -0.393286       -10.7019
  27   2.0000      -0.374625       -10.1941
  28   2.0000      -0.336019        -9.1435
  29   2.0000      -0.328644        -8.9428
  30   2.0000      -0.318629        -8.6703
  31   2.0000      -0.317935        -8.6515
  32   2.0000      -0.315925        -8.5968
  33   2.0000      -0.314156        -8.5486
  34   2.0000      -0.305789        -8.3209
  35   0.0000       0.053071         1.4441
  36   0.0000       0.097642         2.6570
  37   0.0000       0.101314         2.7569
  38   0.0000       0.111430         3.0322
  39   0.0000       0.130555         3.5526

MULLIKEN ATOMIC CHARGES
-----------------------
   0 O :   -0.350256
   1 H :    0.182285
   2 H :    0.228947
   3 O :   -0.389508
   4 H :    0.169865
   5 H :    0.208773
   6 O :   -0.336851
   7 H :    0.178449
   8 H :    0.227084
   9 O :   -0.414014
  10 H :    0.161310
  11 H :    0.164687
  12 O :   -0.376016
  13 H :    0.210579
  14 H :    0.176220
  15 O :   -0.398930
  16 H :    0.177537
  17 H :    0.167799
  18 O :   -0.373160
  19 H :    0.176572
  20 H :    0.208628
Sum of atomic charges:    0.0000000

LOEWDIN ATOMIC CHARGES
----------------------
   0 O :   -0.081905
   1 H :    0.045049
   2 H :    0.112536
   3 O :   -0.140666
   4 H :    0.032279
   5 H :    0.098511
   6 O :   -0.082364
   7 H :    0.057189
   8 H :    0.114634
   9 O :   -0.158769
  10 H :    0.031266
  11 H :    0.031849
  12 O :   -0.139785
  13 H :    0.101942
  14 H :    0.040021
  15 O :   -0.152176
  16 H :    0.034041
  17 H :    0.051950
  18 O :   -0.137372
  19 H :    0.040941
  20 H :    0.100830

  Mayer bond orders larger than 0.100000
B(  0-O ,  1-H ) :   0.8420 B(  0-O ,  2-H ) :   0.9593 B(  0-O ,  7-H ) :   0.1669
B(  0-O , 14-H ) :   0.1758 B(  1-H , 15-O ) :   0.2272 B(  3-O ,  4-H ) :   0.8573
B(  3-O ,  5-H ) :   0.9732 B(  3-O , 16-H ) :   0.2158 B(  4-H ,  9-O ) :   0.2324
B(  6-O ,  7-H ) :   0.8877 B(  6-O ,  8-H ) :   0.9611 B(  6-O , 17-H ) :   0.1197
B(  6-O , 19-H ) :   0.1787 B(  9-O , 10-H ) :   0.8907 B(  9-O , 11-H ) :   0.8913
B( 10-H , 18-O ) :   0.2002 B( 11-H , 12-O ) :   0.1981 B( 12-O , 13-H ) :   0.9739
B( 12-O , 14-H ) :   0.8937 B( 15-O , 16-H ) :   0.8699 B( 15-O , 17-H ) :   0.9418
B( 18-O , 19-H ) :   0.8943 B( 18-O , 20-H ) :   0.9743

Dispersion correction           -0.010438309
FINAL SINGLE POINT ENERGY      -534.123952514425

DIPOLE MOMENT
-------------
                                X             Y             Z
Electronic contribution:      0.24175      -0.09217      -0.21594
Nuclear contribution   :      1.99184      -0.74941      -1.49497
                        -----------------------------------------
Total Dipole Moment    :      2.23359      -0.84158      -1.71090
                        -----------------------------------------
Magnitude (a.u.)       :      2.93673
Magnitude (Debye)      :      7.46457

Dispersion correction in the Hessian             ... done   (      1.3 sec)

VIBRATIONAL FREQUENCIES
-----------------------

Scaling factor for frequencies =  1.000000000  (already applied!)

   0:         0.00 cm**-1
   1:         0.00 cm**-1
   2:         0.00 cm**-1
   3:         0.00 cm**-1
   4:         0.00 cm**-1
   5:         0.00 cm**-1
   6:        11.17 cm**-1
   7:        25.11 cm**-1
   8:        38.67 cm**-1
   9:        51.37 cm**-1
  10:        62.39 cm**-1
  11:        72.85 cm**-1
  12:       152.34 cm**-1
  13:       211.12 cm**-1
  14:       216.18 cm**-1
  15:       223.43 cm**-1
  16:       243.93 cm**-1
  17:       249.24 cm**-1
  18:       258.43 cm**-1
  19:       277.33 cm**-1
  20:       283.45 cm**-1
  21:       303.76 cm**-1
  22:       311.85 cm**-1
  23:       315.24 cm**-1
  24:       336.52 cm**-1
  25:       356.29 cm**-1
  26:       393.80 cm**-1
  27:       408.09 cm**-1
  28:       422.85 cm**-1
  29:       467.63 cm**-1
  30:       490.89 cm**-1
  31:       582.74 cm**-1
  32:       630.17 cm**-1
  33:       656.63 cm**-1
  34:       717.45 cm**-1
  35:       761.93 cm**-1
  36:       815.55 cm**-1
  37:       871.90 cm**-1
  38:       926.88 cm**-1
  39:       961.62 cm**-1
  40:      1051.97 cm**-1
  41:      1101.10 cm**-1
  42:      1585.90 cm**-1
  43:      1619.22 cm**-1
  44:      1637.73 cm**-1
  45:      1642.92 cm**-1
  46:      1652.50 cm**-1
  47:      1675.44 cm**-1
  48:      1685.12 cm**-1
  49:      3081.64 cm**-1
  50:      3141.84 cm**-1
  51:      3263.12 cm**-1
  52:      3353.29 cm**-1
  53:      3386.80 cm**-1
  54:      3434.81 cm**-1
  55:      3446.85 cm**-1
  56:      3510.20 cm**-1
  57:      3702.10 cm**-1
  58:      3866.45 cm**-1
  59:      3867.83 cm**-1
  60:      3869.86 cm**-1
  61:      3871.55 cm**-1
  62:      3873.60 cm**-1

IR SPECTRUM
-----------

 Mode    freq (cm**-1)   T**2         TX         TY         TZ
-------------------------------------------------------------------
   6:        11.17   10.066991  ( -2.530303  -1.570297   1.094864)
   7:        25.11   12.393926  ( -0.254005   0.681010   3.444653)
   8:        38.67    8.608168  (  0.687525   2.735870  -0.806532)
   9:        51.37    3.236393  (  0.158964  -0.387066   1.749658)
  10:        62.39    3.913100  (  1.877676   0.373636  -0.497823)
  11:        72.85    1.287666  ( -0.144362   0.963574  -0.581679)
  12:       152.34    9.654248  ( -0.432539  -2.308123   2.034631)
  13:       211.12   43.647221  (  3.667086  -5.139821  -1.944722)
  14:       216.18    9.239296  ( -1.866493   0.836625  -2.248457)
  15:       223.43   31.605439  ( -4.732532   1.988222  -2.292501)
  16:       243.93    7.852364  (  0.606608   0.324668   2.716428)
  17:       249.24    9.715516  ( -3.032663   0.664170  -0.278118)
  18:       258.43  156.260513  (  1.002443 -11.637976  -4.451195)
  19:       277.33  146.123699  ( -9.689657  -5.709485   4.431257)
  20:       283.45   59.032989  (  6.359026  -0.990351   4.197020)
  21:       303.76   21.390531  ( -3.377858   3.022784   0.918359)
  22:       311.85  170.752161  ( -1.486777   5.592981  11.715811)
  23:       315.24  126.023159  (  2.650885 -10.334691  -3.491435)
  24:       336.52  111.729656  (  1.549881   3.725425  -9.769787)
  25:       356.29  131.593900  ( -2.540356   6.491243  -9.110667)
  26:       393.80   57.014078  ( -6.460738  -3.144722  -2.320272)
  27:       408.09   62.570587  ( -6.152060   3.722240   3.296617)
  28:       422.85  274.658768  (  5.292164  12.872383  -8.997417)
  29:       467.63   39.586353  ( -1.179119   1.086988   6.083953)
  30:       490.89  197.953764  ( -5.785601  -9.029607  -9.107512)
  31:       582.74  156.799032  ( -6.747259  -1.097261  10.491403)
  32:       630.17  340.769094  ( -9.135382 -14.701905  -6.416220)
  33:       656.63  111.724390  ( -4.823376   8.435934  -4.158659)
  34:       717.45  142.363883  ( -2.752632   7.598631  -8.777682)
  35:       761.93  223.583354  (  8.367482  -0.347528  12.387406)
  36:       815.55   75.877259  (  6.050385  -6.099810  -1.436112)
  37:       871.90  303.301951  ( -7.307572 -10.312417  11.981461)
  38:       926.88  306.928750  (  5.382410  16.643054   0.983451)
  39:       961.62  192.109298  ( -8.306272  -7.367361  -8.296814)
  40:      1051.97  202.772116  ( 12.515080   0.537253  -6.771724)
  41:      1101.10   40.003460  ( -0.374140  -4.118007   4.785969)
  42:      1585.90  130.632272  ( -1.403046  -5.058765 -10.152469)
  43:      1619.22  290.312294  (-16.324717   4.858772   0.456342)
  44:      1637.73   31.438960  (  0.019706  -4.050853  -3.876747)
  45:      1642.92    5.944559  (  0.330183  -1.940634  -1.438567)
  46:      1652.50  206.456849  (-11.476508   5.325734  -6.810520)
  47:      1675.44    1.911161  ( -0.822471   0.682152  -0.877138)
  48:      1685.12   78.250719  (  3.246395  -4.043057  -7.166961)
  49:      3081.64  508.052611  ( 22.181690  -3.999627  -0.168030)
  50:      3141.84  2841.713876  (-15.718630 -43.663945 -26.231631)
  51:      3263.12  1195.451073  (-29.172685   7.168165  17.117912)
  52:      3353.29  266.027832  (  5.747375  11.101208 -10.476579)
  53:      3386.80  2089.060045  (-43.937660   1.934847  12.441804)
  54:      3434.81  1759.035713  ( 12.944661 -24.366498  31.587105)
  55:      3446.85  655.742133  (-16.953669 -18.600154   4.727526)
  56:      3510.20  414.329903  ( -1.490925  19.995846  -3.503312)
  57:      3702.10  473.964104  (  0.200224  -1.838644  21.692012)
  58:      3866.45  123.949712  ( -4.111454 -10.020823  -2.574636)
  59:      3867.83  104.353594  (  5.703504  -2.640278  -8.053109)
  60:      3869.86  178.370142  ( -5.303355   7.866521  -9.400129)
  61:      3871.55   90.474630  (  1.191642  -9.380198   1.032713)
  62:      3873.60  139.839779  (  6.478042  -0.447067  -9.883060)

--------------------------
THERMOCHEMISTRY AT 298.15K
--------------------------

Temperature         ... 298.15 K
Pressure            ... 1.00 atm
Total Mass          ... 126.10 AMU

Throughout the following assumptions are being made:
  (1) The electronic state is orbitally nondegenerate
  (2) There are no thermally accessible electronically excited states
  (3) Hindered rotations indicated by low frequency modes are not
      treated as such but are treated as vibrations and this may
      cause some error
  (4) All equations used are the standard statistical mechanics
      equations for an ideal gas
  (5) All vibrations are strictly harmonic

freq.      11.17  E(vib)   ...       0.58
freq.      25.11  E(vib)   ...       0.56
freq.      38.67  E(vib)   ...       0.54
freq.      51.37  E(vib)   ...       0.52
freq.      62.39  E(vib)   ...       0.51
freq.      72.85  E(vib)   ...       0.49
freq.     152.34  E(vib)   ...       0.40
freq.     211.12  E(vib)   ...       0.34
freq.     216.18  E(vib)   ...       0.34
freq.     223.43  E(vib)   ...       0.33
freq.     243.93  E(vib)   ...       0.31
freq.     249.24  E(vib)   ...       0.31
freq.     258.43  E(vib)   ...       0.30
freq.     277.33  E(vib)   ...       0.28
freq.     283.45  E(vib)   ...       0.28
freq.     303.76  E(vib)   ...       0.26
freq.     311.85  E(vib)   ...       0.25
freq.     315.24  E(vib)   ...       0.25
freq.     336.52  E(vib)   ...       0.24
freq.     356.29  E(vib)   ...       0.22
freq.     393.80  E(vib)   ...       0.20
freq.     408.09  E(vib)   ...       0.19
freq.     422.85  E(vib)   ...       0.18
freq.     467.63  E(vib)   ...       0.16
freq.     490.89  E(vib)   ...       0.14
freq.     582.74  E(vib)   ...       0.11
freq.     630.17  E(vib)   ...       0.09
freq.     656.63  E(vib)   ...       0.08
freq.     717.45  E(vib)   ...       0.07
freq.     761.93  E(vib)   ...       0.06
freq.     815.55  E(vib)   ...       0.05
freq.     871.90  E(vib)   ...       0.04
freq.     926.88  E(vib)   ...       0.03
freq.     961.62  E(vib)   ...       0.03
freq.    1051.97  E(vib)   ...       0.02
freq.    1101.10  E(vib)   ...       0.02
freq.    1585.90  E(vib)   ...       0.00
freq.    1619.22  E(vib)   ...       0.00
freq.    1637.73  E(vib)   ...       0.00
freq.    1642.92  E(vib)   ...       0.00
freq.    1652.50  E(vib)   ...       0.00
freq.    1675.44  E(vib)   ...       0.00
freq.    1685.12  E(vib)   ...       0.00
freq.    3081.64  E(vib)   ...       0.00
freq.    3141.84  E(vib)   ...       0.00
freq.    3263.12  E(vib)   ...       0.00
freq.    3353.29  E(vib)   ...       0.00
freq.    3386.80  E(vib)   ...       0.00
freq.    3434.81  E(vib)   ...       0.00
freq.    3446.85  E(vib)   ...       0.00
freq.    3510.20  E(vib)   ...       0.00
freq.    3702.10  E(vib)   ...       0.00
freq.    3866.45  E(vib)   ...       0.00
freq.    3867.83  E(vib)   ...       0.00
freq.    3869.86  E(vib)   ...       0.00
freq.    3871.55  E(vib)   ...       0.00
freq.    3873.60  E(vib)   ...       0.00

------------
INNER ENERGY
------------

The inner energy is: U= E(el) + E(ZPE) + E(vib) + E(rot) + E(trans)
    E(el)   - is the total energy from the electronic structure calculation
              = E(kin-el) + E(nuc-el) + E(el-el) + E(nuc-nuc)
    E(ZPE)  - the the zero temperature vibrational energy from the frequency calculation
    E(vib)  - the the finite temperature correction to E(ZPE) due to population
              of excited vibrational states
    E(rot)  - is the rotational thermal energy
    E(trans)- is the translational thermal energy

Summary of contributions to the inner energy U:
Electronic energy                ...   -534.12395251 Eh
Zero point energy                ...      0.17412190 Eh     109.26 kcal/mol
Thermal vibrational correction   ...      0.01396584 Eh       8.76 kcal/mol
Thermal rotational correction    ...      0.00141627 Eh       0.89 kcal/mol
Thermal translational correction ...      0.00141627 Eh       0.89 kcal/mol
-----------------------------------------------------------------------
Total thermal energy                   -533.93303223 Eh

Summary of corrections to the electronic energy:
(perhaps to be used in another calculation)
Total thermal correction                  0.01679838 Eh      10.54 kcal/mol
Non-thermal (ZPE) correction              0.17412190 Eh     109.26 kcal/mol
-----------------------------------------------------------------------
Total correction                          0.19092028 Eh     119.80 kcal/mol

--------
ENTHALPY
--------

The enthalpy is H = U + kB*T
                kB is Boltzmann's constant
Total free energy                 ...   -533.93303223 Eh
Thermal Enthalpy correction       ...      0.00094421 Eh       0.59 kcal/mol
-----------------------------------------------------------------------
Total Enthalpy                    ...   -533.93208802 Eh

Note: Only C1 symmetry has been detected, increase convergence thresholds
      if your molecule has a higher symmetry. Symmetry factor of 1.0 is
      used for the rotational entropy correction.

Note: Rotational entropy computed according to Herzberg
Infrared and Raman Spectra, Chapter V,1, Van Nostrand Reinhold, 1945
Point Group:  C1, Symmetry Number:   1
Rotational constants in cm-1:     0.038449     0.035088     0.033138

Vibrational entropy computed according to the QRRHO of S. Grimme
Chem.Eur.J. 2012 18 9955

-------
ENTROPY
-------

The entropy contributions are T*S = T*(S(el)+S(vib)+S(rot)+S(trans))
     S(el)   - electronic entropy
     S(vib)  - vibrational entropy
     S(rot)  - rotational entropy
     S(trans)- translational entropy
The entropies will be listed as mutliplied by the temperature to get
units of energy

Electronic entropy                ...      0.00000000 Eh      0.00 kcal/mol
Vibrational entropy               ...      0.02547949 Eh     15.99 kcal/mol
Rotational entropy                ...      0.01423899 Eh      8.94 kcal/mol
Translational entropy             ...      0.01919974 Eh     12.05 kcal/mol
-----------------------------------------------------------------------
Final entropy term                ...      0.05891822 Eh     36.97 kcal/mol

In case the symmetry of your molecule has not been determined correctly
or in case you have a reason to use a different symmetry number we print
out the resulting rotational entropy values for sn=1,12 :
 --------------------------------------------------------
|  sn= 1 | S(rot)=       0.01423899 Eh      8.94 kcal/mol|
|  sn= 2 | S(rot)=       0.01358454 Eh      8.52 kcal/mol|
|  sn= 3 | S(rot)=       0.01320170 Eh      8.28 kcal/mol|
|  sn= 4 | S(rot)=       0.01293008 Eh      8.11 kcal/mol|
|  sn= 5 | S(rot)=       0.01271939 Eh      7.98 kcal/mol|
|  sn= 6 | S(rot)=       0.01254725 Eh      7.87 kcal/mol|

                             ****ORCA TERMINATED NORMALLY****
TOTAL RUN TIME: 0 days 0 hours 18 minutes 54 seconds 983 msec
