                         Program Version 4.2.1 -  RELEASE  -
|  1> ! PBE0 D3BJ def2-SVP LooseOpt Freq CPCM(water) PAL4
|  2> %geom MaxIter 500 end
|  3> %maxcore 4000
|  4> %cpcm
|  5>     smd true
|  6>     SMDsolvent "water"
|  7> end
|  8> *xyzfile 0 1 septamer1.xyz
|  9>
| 10>                          ****END OF INPUT****
 Total Charge           Charge          ....    0
 Multiplicity           Mult            ....    1
 Number of Electrons    NEL             ....   70
Dispersion correction           -0.008096706
FINAL SINGLE POINT ENERGY      -534.049560078187
Dispersion correction            ... done
Dispersion correction           -0.008352094
FINAL SINGLE POINT ENERGY      -534.064874982287
Dispersion correction            ... done
Dispersion correction           -0.008439569
FINAL SINGLE POINT ENERGY      -534.068013538792
Dispersion correction            ... done
FINAL SINGLE POINT ENERGY      -534.071077895432
FINAL SINGLE POINT ENERGY      -534.073697913108
FINAL SINGLE POINT ENERGY      -534.075627378654
FINAL SINGLE POINT ENERGY      -534.077279190618
FINAL SINGLE POINT ENERGY      -534.079065295462
FINAL SINGLE POINT ENERGY      -534.080925585324
FINAL SINGLE POINT ENERGY      -534.082119896977
FINAL SINGLE POINT ENERGY      -534.129180353048
FINAL SINGLE POINT ENERGY      -534.129215318481
FINAL SINGLE POINT ENERGY      -534.129241368007
FINAL SINGLE POINT ENERGY      -534.129289083326
FINAL SINGLE POINT ENERGY      -534.129258360452
FINAL SINGLE POINT ENERGY      -534.129285988590
FINAL SINGLE POINT ENERGY      -534.129330830924
Dispersion correction           -0.011458910
FINAL SINGLE POINT ENERGY      -534.129413356571
Dispersion correction            ... done
Dispersion correction           -0.011468945
FINAL SINGLE POINT ENERGY      -534.129464881313
Dispersion correction            ... done
                    ***********************HURRAY********************

CARTESIAN COORDINATES (ANGSTROEM)
---------------------------------
  O      5.049804    7.642296    5.705613
  H      4.399304    7.029742    5.266921
  H      5.002670    8.447023    5.172826
  O      6.944460    6.637126    2.261159
  H      6.723444    5.709500    1.996805
  H      7.542129    6.960032    1.573733
  O      5.814709    4.241580    1.840072
  H      6.315234    3.536276    1.410702
  H      5.796083    4.003646    2.799502
  O      3.560701    5.856750    4.411997
  H      3.727719    6.138713    3.480788
  H      4.191187    5.113466    4.528023
  O      5.680207    4.137090    4.499613
  H      5.869685    3.393600    5.086124
  H      6.334107    4.856002    4.749635
  O      7.205159    6.229046    4.933769
  H      6.490459    6.831437    5.262303
  H      7.272628    6.468161    3.983285
  O      4.219727    6.527931    1.856644
  H      5.132798    6.861723    1.980772
  H      4.411388    5.617180    1.569615

 Multiplicity           Mult            ....    1
 Number of Electrons    NEL             ....   70
 Basis Dimension        Dim             ....  168

ORBITAL ENERGIES
----------------

  NO   OCC          E(Eh)            E(eV)
   0   2.0000     -19.214909      -522.8643
   1   2.0000     -19.211204      -522.7635
   2   2.0000     -19.210210      -522.7364
   3   2.0000     -19.201668      -522.5039
   4   2.0000     -19.196448      -522.3619
   5   2.0000     -19.188833      -522.1547
   6   2.0000     -19.188041      -522.1331
   7   2.0000      -1.037648       -28.2358
   8   2.0000      -1.022482       -27.8232
   9   2.0000      -1.015613       -27.6362
  10   2.0000      -1.012661       -27.5559
  11   2.0000      -1.005581       -27.3633
  12   2.0000      -0.993964       -27.0471
  13   2.0000      -0.983489       -26.7621
  14   2.0000      -0.557737       -15.1768
  15   2.0000      -0.544557       -14.8181
  16   2.0000      -0.537454       -14.6249
  17   2.0000      -0.530034       -14.4230
  18   2.0000      -0.521706       -14.1963
  19   2.0000      -0.520535       -14.1645
  20   2.0000      -0.519635       -14.1400
  21   2.0000      -0.446694       -12.1552
  22   2.0000      -0.428865       -11.6700
  23   2.0000      -0.417887       -11.3713
  24   2.0000      -0.406515       -11.0618
  25   2.0000      -0.394715       -10.7407
  26   2.0000      -0.393177       -10.6989
  27   2.0000      -0.370390       -10.0788
  28   2.0000      -0.333414        -9.0727
  29   2.0000      -0.330828        -9.0023
  30   2.0000      -0.327696        -8.9171
  31   2.0000      -0.319932        -8.7058
  32   2.0000      -0.318450        -8.6655
  33   2.0000      -0.314679        -8.5628
  34   2.0000      -0.308539        -8.3958
  35   0.0000       0.055150         1.5007
  36   0.0000       0.096995         2.6394
  37   0.0000       0.102002         2.7756
  38   0.0000       0.121958         3.3186
  39   0.0000       0.150346         4.0911

MULLIKEN ATOMIC CHARGES
-----------------------
   0 O :   -0.384815
   1 H :    0.168181
   2 H :    0.209594
   3 O :   -0.344787
   4 H :    0.176943
   5 H :    0.225903
   6 O :   -0.351889
   7 H :    0.221302
   8 H :    0.185906
   9 O :   -0.399150
  10 H :    0.158399
  11 H :    0.167086
  12 O :   -0.358163
  13 H :    0.226264
  14 H :    0.177656
  15 O :   -0.399092
  16 H :    0.164613
  17 H :    0.172662
  18 O :   -0.369956
  19 H :    0.166794
  20 H :    0.186547
Sum of atomic charges:   -0.0000000

LOEWDIN ATOMIC CHARGES
----------------------
   0 O :   -0.146303
   1 H :    0.035094
   2 H :    0.099073
   3 O :   -0.091823
   4 H :    0.050373
   5 H :    0.113169
   6 O :   -0.103182
   7 H :    0.110267
   8 H :    0.048436
   9 O :   -0.153613
  10 H :    0.034451
  11 H :    0.038859
  12 O :   -0.086082
  13 H :    0.110381
  14 H :    0.040940
  15 O :   -0.151117
  16 H :    0.034272
  17 H :    0.040675
  18 O :   -0.138647
  19 H :    0.050072
  20 H :    0.064707

  Mayer bond orders larger than 0.100000
B(  0-O ,  1-H ) :   0.8732 B(  0-O ,  2-H ) :   0.9740 B(  0-O , 16-H ) :   0.2040
B(  1-H ,  9-O ) :   0.2174 B(  3-O ,  4-H ) :   0.8687 B(  3-O ,  5-H ) :   0.9612
B(  3-O , 17-H ) :   0.1569 B(  3-O , 19-H ) :   0.1511 B(  4-H ,  6-O ) :   0.1905
B(  6-O ,  7-H ) :   0.9622 B(  6-O ,  8-H ) :   0.8803 B(  8-H , 12-O ) :   0.1732
B(  9-O , 10-H ) :   0.8965 B(  9-O , 11-H ) :   0.9151 B( 10-H , 18-O ) :   0.1984
B( 11-H , 12-O ) :   0.1598 B( 12-O , 13-H ) :   0.9604 B( 12-O , 14-H ) :   0.8344
B( 14-H , 15-O ) :   0.2402 B( 15-O , 16-H ) :   0.8867 B( 15-O , 17-H ) :   0.9130
B( 18-O , 19-H ) :   0.9251 B( 18-O , 20-H ) :   0.9462

Dispersion correction           -0.011469408
FINAL SINGLE POINT ENERGY      -534.129409507420

DIPOLE MOMENT
-------------
                                X             Y             Z
Electronic contribution:      0.12409      -0.16428      -0.20254
Nuclear contribution   :      1.88055      -1.31275      -1.79515
                        -----------------------------------------
Total Dipole Moment    :      2.00464      -1.47703      -1.99769
                        -----------------------------------------
Magnitude (a.u.)       :      3.19233
Magnitude (Debye)      :      8.11427

Dispersion correction in the Hessian             ... done   (      1.2 sec)

VIBRATIONAL FREQUENCIES
-----------------------

Scaling factor for frequencies =  1.000000000  (already applied!)

   0:         0.00 cm**-1
   1:         0.00 cm**-1
   2:         0.00 cm**-1
   3:         0.00 cm**-1
   4:         0.00 cm**-1
   5:         0.00 cm**-1
   6:        39.47 cm**-1
   7:        53.94 cm**-1
   8:        64.95 cm**-1
   9:        80.64 cm**-1
  10:        86.04 cm**-1
  11:       102.28 cm**-1
  12:       190.54 cm**-1
  13:       200.21 cm**-1
  14:       219.64 cm**-1
  15:       221.27 cm**-1
  16:       234.31 cm**-1
  17:       241.18 cm**-1
  18:       252.85 cm**-1
  19:       259.47 cm**-1
  20:       265.79 cm**-1
  21:       283.21 cm**-1
  22:       295.61 cm**-1
  23:       302.01 cm**-1
  24:       332.07 cm**-1
  25:       383.68 cm**-1
  26:       429.91 cm**-1
  27:       448.79 cm**-1
  28:       480.73 cm**-1
  29:       497.98 cm**-1
  30:       579.72 cm**-1
  31:       612.11 cm**-1
  32:       625.50 cm**-1
  33:       686.65 cm**-1
  34:       749.18 cm**-1
  35:       802.68 cm**-1
  36:       810.86 cm**-1
  37:       828.30 cm**-1
  38:       853.50 cm**-1
  39:       905.27 cm**-1
  40:       998.12 cm**-1
  41:      1104.58 cm**-1
  42:      1594.80 cm**-1
  43:      1618.67 cm**-1
  44:      1626.32 cm**-1
  45:      1660.22 cm**-1
  46:      1673.59 cm**-1
  47:      1692.15 cm**-1
  48:      1693.52 cm**-1
  49:      3071.15 cm**-1
  50:      3228.14 cm**-1
  51:      3342.16 cm**-1
  52:      3372.46 cm**-1
  53:      3414.06 cm**-1
  54:      3425.54 cm**-1
  55:      3525.65 cm**-1
  56:      3551.29 cm**-1
  57:      3600.35 cm**-1
  58:      3729.75 cm**-1
  59:      3868.18 cm**-1
  60:      3871.22 cm**-1
  61:      3878.13 cm**-1
  62:      3880.83 cm**-1

IR SPECTRUM
-----------

 Mode    freq (cm**-1)   T**2         TX         TY         TZ
-------------------------------------------------------------------
   6:        39.47   11.536827  (  0.828570   1.385559   2.988398)
   7:        53.94    2.251132  (  1.416333   0.247025  -0.429080)
   8:        64.95    1.652197  ( -0.294520   1.247792  -0.092032)
   9:        80.64    1.981991  ( -0.403004  -0.133468  -1.342298)
  10:        86.04    5.603029  ( -1.096734   2.042132   0.479480)
  11:       102.28    3.060831  ( -1.614863  -0.648228  -0.181246)
  12:       190.54   49.832656  ( -6.325909   1.561670  -2.716011)
  13:       200.21   21.065308  ( -3.462091   0.096860   3.011620)
  14:       219.64  149.011998  (-10.394812  -5.316777  -3.562551)
  15:       221.27   14.961757  (  1.863129  -3.335451  -0.604379)
  16:       234.31   26.499258  ( -4.781630   0.138180  -1.901624)
  17:       241.18    6.727200  (  2.555787  -0.433363  -0.085722)
  18:       252.85   50.649265  (  3.672216  -6.092988   0.198984)
  19:       259.47  113.509501  (  2.451074  -4.275794  -9.445598)
  20:       265.79   73.978997  ( -3.141035   7.955040  -0.911172)
  21:       283.21   41.801485  ( -0.110100   6.290453  -1.489820)
  22:       295.61  129.584698  (  7.211841   8.718342   1.250820)
  23:       302.01   51.989456  (  6.484763   2.273979  -2.183191)
  24:       332.07  102.677064  (  5.469582  -5.229283  -6.739090)
  25:       383.68   93.176402  ( -5.216434   1.334758   8.011469)
  26:       429.91   43.918074  (  1.573487   5.688482   3.013866)
  27:       448.79    1.630514  (  0.506799   0.873615  -0.781323)
  28:       480.73  269.162015  (-12.106395 -10.748197   2.659602)
  29:       497.98  114.758786  ( -0.342426  -9.748574  -4.427960)
  30:       579.72  178.132847  ( -3.206591  -9.778055  -8.499427)
  31:       612.11   53.838250  (  2.926532  -1.524729  -6.553538)
  32:       625.50   43.910691  (  6.234093   1.024901  -1.999087)
  33:       686.65   59.577862  ( -4.348851  -4.333039  -4.678688)
  34:       749.18  476.294349  (  6.211983 -12.824936  16.529569)
  35:       802.68  304.149315  (  2.614973   4.290300  16.700436)
  36:       810.86   40.080571  ( -2.523883  -4.729777  -3.367462)
  37:       828.30  542.905922  (-21.740513  -7.510080   3.722190)
  38:       853.50  305.886792  (-10.270760 -10.042805  -9.976990)
  39:       905.27  154.549200  ( -9.047478  -7.787933  -3.469933)
  40:       998.12  230.243870  (-13.037448   5.997762   4.929063)
  41:      1104.58   19.796125  (  3.969781   0.368500  -1.975138)
  42:      1594.80   60.966330  ( -2.335048  -4.302360   6.083057)
  43:      1618.67  141.624693  (  4.389946  -5.529514  -9.580060)
  44:      1626.32  242.508869  (-12.377310   9.253811  -1.917822)
  45:      1660.22   95.886683  (  4.665072  -2.771951   8.151078)
  46:      1673.59   44.878695  ( -1.502652   4.287208  -4.923472)
  47:      1692.15  140.656568  ( -8.414667   6.551523  -5.189171)
  48:      1693.52  163.815024  ( 10.531724  -4.624182  -5.613801)
  49:      3071.15  1100.415276  ( 15.623874  27.954925   8.650549)
  50:      3228.14  1455.704518  ( 25.180062  21.093322  19.409810)
  51:      3342.16  983.377628  ( -6.745520 -30.452594   3.242701)
  52:      3372.46  1234.099351  ( 24.433567 -15.722666 -19.745833)
  53:      3414.06  664.255139  (  3.130531  16.864718  19.236326)
  54:      3425.54  1445.915880  (-12.976249 -12.064343  33.644977)
  55:      3525.65  918.832297  (  4.310429  -4.806570  29.616708)
  56:      3551.29  794.707363  ( 16.196550 -20.872881   9.833716)
  57:      3600.35  665.204525  ( 24.868584   6.658070   1.558258)
  58:      3729.75  360.659104  ( -3.345179  18.258353   4.012660)
  59:      3868.18  108.140919  (  1.137318   9.484686  -4.109521)
  60:      3871.22  129.926807  (  6.908472   7.042856  -5.709465)
  61:      3878.13  133.836695  ( -2.354305  -6.767518   9.082656)
  62:      3880.83  157.969954  (  6.027813  -9.563447  -5.493259)

--------------------------
THERMOCHEMISTRY AT 298.15K
--------------------------

Temperature         ... 298.15 K
Pressure            ... 1.00 atm
Total Mass          ... 126.10 AMU

Throughout the following assumptions are being made:
  (1) The electronic state is orbitally nondegenerate
  (2) There are no thermally accessible electronically excited states
  (3) Hindered rotations indicated by low frequency modes are not
      treated as such but are treated as vibrations and this may
      cause some error
  (4) All equations used are the standard statistical mechanics
      equations for an ideal gas
  (5) All vibrations are strictly harmonic

freq.      39.47  E(vib)   ...       0.54
freq.      53.94  E(vib)   ...       0.52
freq.      64.95  E(vib)   ...       0.50
freq.      80.64  E(vib)   ...       0.48
freq.      86.04  E(vib)   ...       0.48
freq.     102.28  E(vib)   ...       0.46
freq.     190.54  E(vib)   ...       0.36
freq.     200.21  E(vib)   ...       0.35
freq.     219.64  E(vib)   ...       0.33
freq.     221.27  E(vib)   ...       0.33
freq.     234.31  E(vib)   ...       0.32
freq.     241.18  E(vib)   ...       0.31
freq.     252.85  E(vib)   ...       0.30
freq.     259.47  E(vib)   ...       0.30
freq.     265.79  E(vib)   ...       0.29
freq.     283.21  E(vib)   ...       0.28
freq.     295.61  E(vib)   ...       0.27
freq.     302.01  E(vib)   ...       0.26
freq.     332.07  E(vib)   ...       0.24
freq.     383.68  E(vib)   ...       0.20
freq.     429.91  E(vib)   ...       0.18
freq.     448.79  E(vib)   ...       0.17
freq.     480.73  E(vib)   ...       0.15
freq.     497.98  E(vib)   ...       0.14
freq.     579.72  E(vib)   ...       0.11
freq.     612.11  E(vib)   ...       0.10
freq.     625.50  E(vib)   ...       0.09
freq.     686.65  E(vib)   ...       0.07
freq.     749.18  E(vib)   ...       0.06
freq.     802.68  E(vib)   ...       0.05
freq.     810.86  E(vib)   ...       0.05
freq.     828.30  E(vib)   ...       0.04
freq.     853.50  E(vib)   ...       0.04
freq.     905.27  E(vib)   ...       0.03
freq.     998.12  E(vib)   ...       0.02
freq.    1104.58  E(vib)   ...       0.02
freq.    1594.80  E(vib)   ...       0.00
freq.    1618.67  E(vib)   ...       0.00
freq.    1626.32  E(vib)   ...       0.00
freq.    1660.22  E(vib)   ...       0.00
freq.    1673.59  E(vib)   ...       0.00
freq.    1692.15  E(vib)   ...       0.00
freq.    1693.52  E(vib)   ...       0.00
freq.    3071.15  E(vib)   ...       0.00
freq.    3228.14  E(vib)   ...       0.00
freq.    3342.16  E(vib)   ...       0.00
freq.    3372.46  E(vib)   ...       0.00
freq.    3414.06  E(vib)   ...       0.00
freq.    3425.54  E(vib)   ...       0.00
freq.    3525.65  E(vib)   ...       0.00
freq.    3551.29  E(vib)   ...       0.00
freq.    3600.35  E(vib)   ...       0.00
freq.    3729.75  E(vib)   ...       0.00
freq.    3868.18  E(vib)   ...       0.00
freq.    3871.22  E(vib)   ...       0.00
freq.    3878.13  E(vib)   ...       0.00
freq.    3880.83  E(vib)   ...       0.00

------------
INNER ENERGY
------------

The inner energy is: U= E(el) + E(ZPE) + E(vib) + E(rot) + E(trans)
    E(el)   - is the total energy from the electronic structure calculation
              = E(kin-el) + E(nuc-el) + E(el-el) + E(nuc-nuc)
    E(ZPE)  - the the zero temperature vibrational energy from the frequency calculation
    E(vib)  - the the finite temperature correction to E(ZPE) due to population
              of excited vibrational states
    E(rot)  - is the rotational thermal energy
    E(trans)- is the translational thermal energy

Summary of contributions to the inner energy U:
Electronic energy                ...   -534.12940951 Eh
Zero point energy                ...      0.17505720 Eh     109.85 kcal/mol
Thermal vibrational correction   ...      0.01348319 Eh       8.46 kcal/mol
Thermal rotational correction    ...      0.00141627 Eh       0.89 kcal/mol
Thermal translational correction ...      0.00141627 Eh       0.89 kcal/mol
-----------------------------------------------------------------------
Total thermal energy                   -533.93803657 Eh

Summary of corrections to the electronic energy:
(perhaps to be used in another calculation)
Total thermal correction                  0.01631573 Eh      10.24 kcal/mol
Non-thermal (ZPE) correction              0.17505720 Eh     109.85 kcal/mol
-----------------------------------------------------------------------
Total correction                          0.19137294 Eh     120.09 kcal/mol

--------
ENTHALPY
--------

The enthalpy is H = U + kB*T
                kB is Boltzmann's constant
Total free energy                 ...   -533.93803657 Eh
Thermal Enthalpy correction       ...      0.00094421 Eh       0.59 kcal/mol
-----------------------------------------------------------------------
Total Enthalpy                    ...   -533.93709236 Eh

Note: Only C1 symmetry has been detected, increase convergence thresholds
      if your molecule has a higher symmetry. Symmetry factor of 1.0 is
      used for the rotational entropy correction.

Note: Rotational entropy computed according to Herzberg
Infrared and Raman Spectra, Chapter V,1, Van Nostrand Reinhold, 1945
Point Group:  C1, Symmetry Number:   1
Rotational constants in cm-1:     0.048473     0.035941     0.033541

Vibrational entropy computed according to the QRRHO of S. Grimme
Chem.Eur.J. 2012 18 9955

-------
ENTROPY
-------

The entropy contributions are T*S = T*(S(el)+S(vib)+S(rot)+S(trans))
     S(el)   - electronic entropy
     S(vib)  - vibrational entropy
     S(rot)  - rotational entropy
     S(trans)- translational entropy
The entropies will be listed as mutliplied by the temperature to get
units of energy

Electronic entropy                ...      0.00000000 Eh      0.00 kcal/mol
Vibrational entropy               ...      0.02382812 Eh     14.95 kcal/mol
Rotational entropy                ...      0.01411256 Eh      8.86 kcal/mol
Translational entropy             ...      0.01919974 Eh     12.05 kcal/mol
-----------------------------------------------------------------------
Final entropy term                ...      0.05714042 Eh     35.86 kcal/mol

In case the symmetry of your molecule has not been determined correctly
or in case you have a reason to use a different symmetry number we print
out the resulting rotational entropy values for sn=1,12 :
 --------------------------------------------------------
|  sn= 1 | S(rot)=       0.01411256 Eh      8.86 kcal/mol|
|  sn= 2 | S(rot)=       0.01345811 Eh      8.45 kcal/mol|
|  sn= 3 | S(rot)=       0.01307528 Eh      8.20 kcal/mol|
|  sn= 4 | S(rot)=       0.01280365 Eh      8.03 kcal/mol|
|  sn= 5 | S(rot)=       0.01259296 Eh      7.90 kcal/mol|
|  sn= 6 | S(rot)=       0.01242082 Eh      7.79 kcal/mol|

                             ****ORCA TERMINATED NORMALLY****
TOTAL RUN TIME: 0 days 0 hours 24 minutes 13 seconds 920 msec
