                         Program Version 4.2.1 -  RELEASE  -
|  1> ! PBE0 D3BJ def2-SVP LooseOpt Freq CPCM(water) PAL4
|  2> %geom MaxIter 500 end
|  3> %maxcore 4000
|  4> %cpcm
|  5>     smd true
|  6>     SMDsolvent "water"
|  7> end
|  8> *xyzfile 0 1 septamer3.xyz
|  9>
| 10>                          ****END OF INPUT****
 Total Charge           Charge          ....    0
 Multiplicity           Mult            ....    1
 Number of Electrons    NEL             ....   70
Dispersion correction           -0.010797670
FINAL SINGLE POINT ENERGY      -534.126643518245
Dispersion correction            ... done
                    ***********************HURRAY********************

CARTESIAN COORDINATES (ANGSTROEM)
---------------------------------
  O      7.310552    5.266466    3.670511
  H      7.418704    5.973702    4.373497
  H      8.205259    4.963868    3.467644
  O      4.853769    7.573741    5.729663
  H      4.433733    6.904240    5.122161
  H      4.676465    8.418087    5.294397
  O      4.648094    3.390101    1.640887
  H      3.686891    3.475497    1.695772
  H      4.915636    3.265238    2.579950
  O      3.817490    5.800214    4.051222
  H      4.314673    6.005735    3.221047
  H      4.214693    4.942551    4.309706
  O      5.377188    3.553965    4.236999
  H      5.577528    2.890017    4.908957
  H      6.201953    4.096441    4.133777
  O      7.454204    7.193674    5.430425
  H      6.482388    7.362095    5.580181
  H      7.739407    7.949415    4.899831
  O      5.402549    6.013510    1.862814
  H      6.211129    5.848437    2.394901
  H      5.137216    5.100035    1.607497

 Multiplicity           Mult            ....    1
 Number of Electrons    NEL             ....   70
 Basis Dimension        Dim             ....  168

ORBITAL ENERGIES
----------------

  NO   OCC          E(Eh)            E(eV)
   0   2.0000     -19.212505      -522.7988
   1   2.0000     -19.211117      -522.7611
   2   2.0000     -19.201379      -522.4961
   3   2.0000     -19.200457      -522.4710
   4   2.0000     -19.197435      -522.3888
   5   2.0000     -19.191169      -522.2183
   6   2.0000     -19.188938      -522.1575
   7   2.0000      -1.035271       -28.1712
   8   2.0000      -1.021702       -27.8019
   9   2.0000      -1.015300       -27.6277
  10   2.0000      -1.009534       -27.4708
  11   2.0000      -1.005332       -27.3565
  12   2.0000      -0.992568       -27.0092
  13   2.0000      -0.984838       -26.7988
  14   2.0000      -0.554007       -15.0753
  15   2.0000      -0.543402       -14.7867
  16   2.0000      -0.531185       -14.4543
  17   2.0000      -0.528814       -14.3898
  18   2.0000      -0.527580       -14.3562
  19   2.0000      -0.520424       -14.1615
  20   2.0000      -0.519507       -14.1365
  21   2.0000      -0.446274       -12.1437
  22   2.0000      -0.431813       -11.7502
  23   2.0000      -0.412224       -11.2172
  24   2.0000      -0.407256       -11.0820
  25   2.0000      -0.393687       -10.7128
  26   2.0000      -0.391041       -10.6408
  27   2.0000      -0.370729       -10.0880
  28   2.0000      -0.332518        -9.0483
  29   2.0000      -0.330200        -8.9852
  30   2.0000      -0.322235        -8.7685
  31   2.0000      -0.321000        -8.7349
  32   2.0000      -0.317934        -8.6514
  33   2.0000      -0.312610        -8.5066
  34   2.0000      -0.309179        -8.4132
  35   0.0000       0.057160         1.5554
  36   0.0000       0.088954         2.4206
  37   0.0000       0.106529         2.8988
  38   0.0000       0.118645         3.2285
  39   0.0000       0.137186         3.7330

MULLIKEN ATOMIC CHARGES
-----------------------
   0 O :   -0.353568
   1 H :    0.188264
   2 H :    0.224901
   3 O :   -0.386085
   4 H :    0.179355
   5 H :    0.209551
   6 O :   -0.369862
   7 H :    0.209577
   8 H :    0.169751
   9 O :   -0.400815
  10 H :    0.151893
  11 H :    0.171504
  12 O :   -0.347252
  13 H :    0.223740
  14 H :    0.186838
  15 O :   -0.379397
  16 H :    0.182078
  17 H :    0.210881
  18 O :   -0.397910
  19 H :    0.166921
  20 H :    0.159633
Sum of atomic charges:   -0.0000000

LOEWDIN ATOMIC CHARGES
----------------------
   0 O :   -0.076817
   1 H :    0.041695
   2 H :    0.109923
   3 O :   -0.135408
   4 H :    0.038060
   5 H :    0.100380
   6 O :   -0.143360
   7 H :    0.100578
   8 H :    0.041916
   9 O :   -0.146738
  10 H :    0.032938
  11 H :    0.043695
  12 O :   -0.087926
  13 H :    0.111488
  14 H :    0.046610
  15 O :   -0.126571
  16 H :    0.038617
  17 H :    0.101610
  18 O :   -0.166566
  19 H :    0.038843
  20 H :    0.037033

  Mayer bond orders larger than 0.100000
B(  0-O ,  1-H ) :   0.8369 B(  0-O ,  2-H ) :   0.9610 B(  0-O , 14-H ) :   0.1845
B(  0-O , 19-H ) :   0.1568 B(  1-H , 15-O ) :   0.2328 B(  3-O ,  4-H ) :   0.8695
B(  3-O ,  5-H ) :   0.9730 B(  3-O , 16-H ) :   0.2130 B(  4-H ,  9-O ) :   0.2131
B(  6-O ,  7-H ) :   0.9744 B(  6-O ,  8-H ) :   0.9067 B(  6-O , 20-H ) :   0.1878
B(  8-H , 12-O ) :   0.1682 B(  9-O , 10-H ) :   0.8896 B(  9-O , 11-H ) :   0.9193
B( 10-H , 18-O ) :   0.2116 B( 11-H , 12-O ) :   0.1506 B( 12-O , 13-H ) :   0.9611
B( 12-O , 14-H ) :   0.8645 B( 15-O , 16-H ) :   0.8674 B( 15-O , 17-H ) :   0.9723
B( 18-O , 19-H ) :   0.9178 B( 18-O , 20-H ) :   0.9060

Dispersion correction           -0.010801633
FINAL SINGLE POINT ENERGY      -534.126645015954

DIPOLE MOMENT
-------------
                                X             Y             Z
Electronic contribution:      0.23070      -0.17250       0.21021
Nuclear contribution   :      1.23854      -0.32294       0.28656
                        -----------------------------------------
Total Dipole Moment    :      1.46924      -0.49545       0.49677
                        -----------------------------------------
Magnitude (a.u.)       :      1.62816
Magnitude (Debye)      :      4.13846

Dispersion correction in the Hessian             ... done   (      1.2 sec)

VIBRATIONAL FREQUENCIES
-----------------------

Scaling factor for frequencies =  1.000000000  (already applied!)

   0:         0.00 cm**-1
   1:         0.00 cm**-1
   2:         0.00 cm**-1
   3:         0.00 cm**-1
   4:         0.00 cm**-1
   5:         0.00 cm**-1
   6:       -28.56 cm**-1 ***imaginary mode***
   7:        20.62 cm**-1
   8:        26.91 cm**-1
   9:        65.60 cm**-1
  10:        75.76 cm**-1
  11:       104.18 cm**-1
  12:       163.30 cm**-1
  13:       203.80 cm**-1
  14:       215.65 cm**-1
  15:       225.16 cm**-1
  16:       231.13 cm**-1
  17:       249.07 cm**-1
  18:       253.43 cm**-1
  19:       266.83 cm**-1
  20:       281.99 cm**-1
  21:       289.11 cm**-1
  22:       315.98 cm**-1
  23:       327.80 cm**-1
  24:       329.92 cm**-1
  25:       349.03 cm**-1
  26:       365.20 cm**-1
  27:       438.87 cm**-1
  28:       451.05 cm**-1
  29:       496.18 cm**-1
  30:       552.97 cm**-1
  31:       606.30 cm**-1
  32:       643.00 cm**-1
  33:       667.90 cm**-1
  34:       725.87 cm**-1
  35:       785.78 cm**-1
  36:       815.16 cm**-1
  37:       859.06 cm**-1
  38:       900.34 cm**-1
  39:       949.08 cm**-1
  40:       989.01 cm**-1
  41:      1045.79 cm**-1
  42:      1586.54 cm**-1
  43:      1626.84 cm**-1
  44:      1643.63 cm**-1
  45:      1656.34 cm**-1
  46:      1661.91 cm**-1
  47:      1698.54 cm**-1
  48:      1718.81 cm**-1
  49:      3054.10 cm**-1
  50:      3176.34 cm**-1
  51:      3265.30 cm**-1
  52:      3309.13 cm**-1
  53:      3376.95 cm**-1
  54:      3458.19 cm**-1
  55:      3509.63 cm**-1
  56:      3549.37 cm**-1
  57:      3591.27 cm**-1
  58:      3864.41 cm**-1
  59:      3866.82 cm**-1
  60:      3867.54 cm**-1
  61:      3876.69 cm**-1
  62:      3880.83 cm**-1

IR SPECTRUM
-----------

 Mode    freq (cm**-1)   T**2         TX         TY         TZ
-------------------------------------------------------------------
   7:        20.62   16.910393  ( -1.240730  -2.527492  -2.997126)
   8:        26.91   17.841352  (  0.230527   2.556916   3.354160)
   9:        65.60    0.491821  ( -0.332122  -0.515560  -0.340166)
  10:        75.76    3.001748  ( -1.194537   0.835304   0.936534)
  11:       104.18    0.544560  (  0.477176   0.428199  -0.365389)
  12:       163.30   52.928126  (  4.209002  -3.693866  -4.644113)
  13:       203.80   73.700909  (  0.778017   8.547813   0.174625)
  14:       215.65   18.149798  ( -1.386790   2.612625   3.066072)
  15:       225.16    7.841967  (  1.354891   1.640510   1.820705)
  16:       231.13  157.751825  (  3.543752   7.807577   9.177984)
  17:       249.07   49.990249  (  0.389079  -1.191433  -6.958402)
  18:       253.43   30.843218  (  1.150569  -5.417866  -0.407605)
  19:       266.83   68.130466  ( -0.454091  -5.435576   6.195061)
  20:       281.99   50.401241  ( -6.873933  -1.731609   0.389630)
  21:       289.11  161.274551  ( -9.454866   4.511363   7.178277)
  22:       315.98   35.707592  ( -1.674628   0.018773  -5.736101)
  23:       327.80   89.751562  ( -3.385488  -6.564178  -5.933094)
  24:       329.92  221.433012  ( -5.917089 -13.315835  -3.018211)
  25:       349.03    5.143075  ( -0.901235   1.872386   0.908307)
  26:       365.20   98.079556  (  2.632674  -7.076444   6.408784)
  27:       438.87   24.306621  (  0.241245   3.831347   3.093412)
  28:       451.05  120.914865  ( -5.796743  -0.342494   9.337844)
  29:       496.18  207.559954  (  6.101510  12.818360   2.453811)
  30:       552.97  222.358402  (-13.545681   0.894086   6.170376)
  31:       606.30   15.095452  ( -2.159002   2.464964  -2.087610)
  32:       643.00   56.494240  (  1.979348  -4.428573   5.741443)
  33:       667.90    7.209577  (  0.338625  -2.154731  -1.565900)
  34:       725.87   56.672731  (  6.194329  -1.545414   3.989325)
  35:       785.78  257.864271  ( -1.408184 -15.230704   4.889472)
  36:       815.16  349.380268  (-12.953468 -11.371827   7.229763)
  37:       859.06  131.394540  ( -6.695705   7.015462   6.111085)
  38:       900.34  793.029080  (  1.445459  11.084034  25.847319)
  39:       949.08   58.979906  (  7.271468   2.425527   0.471668)
  40:       989.01   58.286570  (  3.371945   4.055814  -5.519686)
  41:      1045.79  108.547232  (-10.269480  -1.347441   1.126684)
  42:      1586.54  179.894374  ( 11.739268  -5.897833   2.701763)
  43:      1626.84   64.962927  (  5.876649   1.226590   5.378048)
  44:      1643.63  115.961169  ( -4.525066  -2.575333   9.426166)
  45:      1656.34  154.902199  ( -4.217537   8.872400  -7.641669)
  46:      1661.91   41.935163  (  1.816165   4.669929   4.102252)
  47:      1698.54   33.171065  (  1.218655  -3.489681   4.416794)
  48:      1718.81  237.306505  (-11.459441   9.629632   3.641142)
  49:      3054.10  1340.752765  (  7.907070 -28.592210 -21.464308)
  50:      3176.34  2954.297480  (-31.141165 -34.049838 -28.725144)
  51:      3265.30  1366.039104  (-28.974529  14.348304  17.906479)
  52:      3309.13  498.368602  (-18.671525 -11.860045   3.013651)
  53:      3376.95  483.863736  (-17.571908  -0.858237  13.204364)
  54:      3458.19  1142.068123  (-14.313375 -20.462656  22.770049)
  55:      3509.63  876.410145  ( 12.378173  18.554292  19.466105)
  56:      3549.37  791.522865  ( 21.742449  -4.714854  17.220886)
  57:      3591.27  832.723765  (-11.837269  22.829261 -13.093039)
  58:      3864.41   45.330479  (  4.527727   3.219171  -3.803565)
  59:      3866.82  116.619443  (-10.241095   1.450143  -3.104270)
  60:      3867.54  168.937290  (  0.523670  12.168202  -4.538493)
  61:      3876.69  148.205348  ( 10.058185  -2.028596  -6.551570)
  62:      3880.83  140.271739  ( -1.606906   9.967457  -6.191881)

--------------------------
THERMOCHEMISTRY AT 298.15K
--------------------------

Temperature         ... 298.15 K
Pressure            ... 1.00 atm
Total Mass          ... 126.10 AMU

Throughout the following assumptions are being made:
  (1) The electronic state is orbitally nondegenerate
  (2) There are no thermally accessible electronically excited states
  (3) Hindered rotations indicated by low frequency modes are not
      treated as such but are treated as vibrations and this may
      cause some error
  (4) All equations used are the standard statistical mechanics
      equations for an ideal gas
  (5) All vibrations are strictly harmonic

freq.      20.62  E(vib)   ...       0.56
freq.      26.91  E(vib)   ...       0.55
freq.      65.60  E(vib)   ...       0.50
freq.      75.76  E(vib)   ...       0.49
freq.     104.18  E(vib)   ...       0.46
freq.     163.30  E(vib)   ...       0.39
freq.     203.80  E(vib)   ...       0.35
freq.     215.65  E(vib)   ...       0.34
freq.     225.16  E(vib)   ...       0.33
freq.     231.13  E(vib)   ...       0.32
freq.     249.07  E(vib)   ...       0.31
freq.     253.43  E(vib)   ...       0.30
freq.     266.83  E(vib)   ...       0.29
freq.     281.99  E(vib)   ...       0.28
freq.     289.11  E(vib)   ...       0.27
freq.     315.98  E(vib)   ...       0.25
freq.     327.80  E(vib)   ...       0.24
freq.     329.92  E(vib)   ...       0.24
freq.     349.03  E(vib)   ...       0.23
freq.     365.20  E(vib)   ...       0.22
freq.     438.87  E(vib)   ...       0.17
freq.     451.05  E(vib)   ...       0.16
freq.     496.18  E(vib)   ...       0.14
freq.     552.97  E(vib)   ...       0.12
freq.     606.30  E(vib)   ...       0.10
freq.     643.00  E(vib)   ...       0.09
freq.     667.90  E(vib)   ...       0.08
freq.     725.87  E(vib)   ...       0.06
freq.     785.78  E(vib)   ...       0.05
freq.     815.16  E(vib)   ...       0.05
freq.     859.06  E(vib)   ...       0.04
freq.     900.34  E(vib)   ...       0.03
freq.     949.08  E(vib)   ...       0.03
freq.     989.01  E(vib)   ...       0.02
freq.    1045.79  E(vib)   ...       0.02
freq.    1586.54  E(vib)   ...       0.00
freq.    1626.84  E(vib)   ...       0.00
freq.    1643.63  E(vib)   ...       0.00
freq.    1656.34  E(vib)   ...       0.00
freq.    1661.91  E(vib)   ...       0.00
freq.    1698.54  E(vib)   ...       0.00
freq.    1718.81  E(vib)   ...       0.00
freq.    3054.10  E(vib)   ...       0.00
freq.    3176.34  E(vib)   ...       0.00
freq.    3265.30  E(vib)   ...       0.00
freq.    3309.13  E(vib)   ...       0.00
freq.    3376.95  E(vib)   ...       0.00
freq.    3458.19  E(vib)   ...       0.00
freq.    3509.63  E(vib)   ...       0.00
freq.    3549.37  E(vib)   ...       0.00
freq.    3591.27  E(vib)   ...       0.00
freq.    3864.41  E(vib)   ...       0.00
freq.    3866.82  E(vib)   ...       0.00
freq.    3867.54  E(vib)   ...       0.00
freq.    3876.69  E(vib)   ...       0.00
freq.    3880.83  E(vib)   ...       0.00

------------
INNER ENERGY
------------

The inner energy is: U= E(el) + E(ZPE) + E(vib) + E(rot) + E(trans)
    E(el)   - is the total energy from the electronic structure calculation
              = E(kin-el) + E(nuc-el) + E(el-el) + E(nuc-nuc)
    E(ZPE)  - the the zero temperature vibrational energy from the frequency calculation
    E(vib)  - the the finite temperature correction to E(ZPE) due to population
              of excited vibrational states
    E(rot)  - is the rotational thermal energy
    E(trans)- is the translational thermal energy

Summary of contributions to the inner energy U:
Electronic energy                ...   -534.12664502 Eh
Zero point energy                ...      0.17433911 Eh     109.40 kcal/mol
Thermal vibrational correction   ...      0.01291027 Eh       8.10 kcal/mol
Thermal rotational correction    ...      0.00141627 Eh       0.89 kcal/mol
Thermal translational correction ...      0.00141627 Eh       0.89 kcal/mol
-----------------------------------------------------------------------
Total thermal energy                   -533.93656309 Eh

Summary of corrections to the electronic energy:
(perhaps to be used in another calculation)
Total thermal correction                  0.01574281 Eh       9.88 kcal/mol
Non-thermal (ZPE) correction              0.17433911 Eh     109.40 kcal/mol
-----------------------------------------------------------------------
Total correction                          0.19008192 Eh     119.28 kcal/mol

--------
ENTHALPY
--------

The enthalpy is H = U + kB*T
                kB is Boltzmann's constant
Total free energy                 ...   -533.93656309 Eh
Thermal Enthalpy correction       ...      0.00094421 Eh       0.59 kcal/mol
-----------------------------------------------------------------------
Total Enthalpy                    ...   -533.93561889 Eh

Note: Only C1 symmetry has been detected, increase convergence thresholds
      if your molecule has a higher symmetry. Symmetry factor of 1.0 is
      used for the rotational entropy correction.

Note: Rotational entropy computed according to Herzberg
Infrared and Raman Spectra, Chapter V,1, Van Nostrand Reinhold, 1945
Point Group:  C1, Symmetry Number:   1
Rotational constants in cm-1:     0.058479     0.029030     0.025824

Vibrational entropy computed according to the QRRHO of S. Grimme
Chem.Eur.J. 2012 18 9955

-------
ENTROPY
-------

The entropy contributions are T*S = T*(S(el)+S(vib)+S(rot)+S(trans))
     S(el)   - electronic entropy
     S(vib)  - vibrational entropy
     S(rot)  - rotational entropy
     S(trans)- translational entropy
The entropies will be listed as mutliplied by the temperature to get
units of energy

Electronic entropy                ...      0.00000000 Eh      0.00 kcal/mol
Vibrational entropy               ...      0.02301988 Eh     14.45 kcal/mol
Rotational entropy                ...      0.01424821 Eh      8.94 kcal/mol
Translational entropy             ...      0.01919974 Eh     12.05 kcal/mol
-----------------------------------------------------------------------
Final entropy term                ...      0.05646783 Eh     35.43 kcal/mol

In case the symmetry of your molecule has not been determined correctly
or in case you have a reason to use a different symmetry number we print
out the resulting rotational entropy values for sn=1,12 :
 --------------------------------------------------------
|  sn= 1 | S(rot)=       0.01424821 Eh      8.94 kcal/mol|
|  sn= 2 | S(rot)=       0.01359375 Eh      8.53 kcal/mol|
|  sn= 3 | S(rot)=       0.01321092 Eh      8.29 kcal/mol|
|  sn= 4 | S(rot)=       0.01293929 Eh      8.12 kcal/mol|
|  sn= 5 | S(rot)=       0.01272861 Eh      7.99 kcal/mol|
|  sn= 6 | S(rot)=       0.01255646 Eh      7.88 kcal/mol|
|  sn= 7 | S(rot)=       0.01241092 Eh      7.79 kcal/mol|

                             ****ORCA TERMINATED NORMALLY****
TOTAL RUN TIME: 0 days 0 hours 4 minutes 33 seconds 656 msec
