                         Program Version 4.2.1 -  RELEASE  -
|  1> ! PBE0 D3BJ def2-SVP LooseOpt Freq CPCM(water) PAL4
|  2> %geom MaxIter 500 end
|  3> %maxcore 4000
|  4> %cpcm
|  5>     smd true
|  6>     SMDsolvent "water"
|  7> end
|  8> *xyzfile 0 1 septamer7.xyz
|  9>
| 10>                          ****END OF INPUT****
 Total Charge           Charge          ....    0
 Multiplicity           Mult            ....    1
 Number of Electrons    NEL             ....   70
Dispersion correction           -0.009078144
FINAL SINGLE POINT ENERGY      -534.060571658919
Dispersion correction            ... done
Dispersion correction           -0.009091644
FINAL SINGLE POINT ENERGY      -534.074758043727
Dispersion correction            ... done
Dispersion correction           -0.009141895
FINAL SINGLE POINT ENERGY      -534.077964179007
Dispersion correction            ... done
FINAL SINGLE POINT ENERGY      -534.080743181769
FINAL SINGLE POINT ENERGY      -534.082995474112
FINAL SINGLE POINT ENERGY      -534.084497888566
FINAL SINGLE POINT ENERGY      -534.086646908920
FINAL SINGLE POINT ENERGY      -534.088627451571
FINAL SINGLE POINT ENERGY      -534.090148287773
FINAL SINGLE POINT ENERGY      -534.092523258286
FINAL SINGLE POINT ENERGY      -534.121288870503
FINAL SINGLE POINT ENERGY      -534.121363981821
FINAL SINGLE POINT ENERGY      -534.121334794931
FINAL SINGLE POINT ENERGY      -534.121396228515
FINAL SINGLE POINT ENERGY      -534.121453281599
FINAL SINGLE POINT ENERGY      -534.121505457610
FINAL SINGLE POINT ENERGY      -534.121559919227
Dispersion correction           -0.010816352
FINAL SINGLE POINT ENERGY      -534.121322687485
Dispersion correction            ... done
Dispersion correction           -0.010821813
FINAL SINGLE POINT ENERGY      -534.121703681320
Dispersion correction            ... done
                    ***********************HURRAY********************

CARTESIAN COORDINATES (ANGSTROEM)
---------------------------------
  O      7.325124    4.687019    3.365792
  H      7.389631    5.338498    4.118747
  H      8.178561    4.234129    3.350861
  O      5.064366    7.348494    5.826595
  H      4.517786    6.867916    5.151405
  H      4.906923    8.280521    5.623504
  O      7.149595    7.128507    2.184494
  H      7.353763    6.181702    2.350862
  H      7.709278    7.375775    1.437090
  O      5.204570    3.877232    1.925775
  H      4.562302    3.399427    2.466197
  H      5.960545    4.057943    2.528279
  O      3.741578    5.982971    3.962822
  H      4.017816    6.265754    3.049940
  H      4.110923    5.093122    4.038857
  O      7.510516    6.789988    4.944811
  H      6.613974    7.005939    5.319150
  H      7.518503    7.266112    4.095175
  O      4.580554    6.479542    1.484413
  H      5.477608    6.843770    1.655660
  H      4.746853    5.508762    1.460991

 Multiplicity           Mult            ....    1
 Number of Electrons    NEL             ....   70
 Basis Dimension        Dim             ....  168

ORBITAL ENERGIES
----------------

  NO   OCC          E(Eh)            E(eV)
   0   2.0000     -19.216038      -522.8950
   1   2.0000     -19.213325      -522.8212
   2   2.0000     -19.203388      -522.5507
   3   2.0000     -19.200796      -522.4802
   4   2.0000     -19.197222      -522.3830
   5   2.0000     -19.192223      -522.2469
   6   2.0000     -19.190149      -522.1905
   7   2.0000      -1.037411       -28.2294
   8   2.0000      -1.021596       -27.7991
   9   2.0000      -1.017597       -27.6902
  10   2.0000      -1.015627       -27.6366
  11   2.0000      -1.002388       -27.2764
  12   2.0000      -0.992698       -27.0127
  13   2.0000      -0.988083       -26.8871
  14   2.0000      -0.560437       -15.2503
  15   2.0000      -0.542448       -14.7608
  16   2.0000      -0.534636       -14.5482
  17   2.0000      -0.531716       -14.4687
  18   2.0000      -0.525329       -14.2949
  19   2.0000      -0.522828       -14.2269
  20   2.0000      -0.519670       -14.1409
  21   2.0000      -0.437677       -11.9098
  22   2.0000      -0.428884       -11.6705
  23   2.0000      -0.418219       -11.3803
  24   2.0000      -0.405593       -11.0367
  25   2.0000      -0.402579       -10.9547
  26   2.0000      -0.385550       -10.4913
  27   2.0000      -0.375757       -10.2249
  28   2.0000      -0.336245        -9.1497
  29   2.0000      -0.329388        -8.9631
  30   2.0000      -0.324648        -8.8341
  31   2.0000      -0.321212        -8.7406
  32   2.0000      -0.316227        -8.6050
  33   2.0000      -0.314686        -8.5630
  34   2.0000      -0.310873        -8.4593
  35   0.0000       0.049884         1.3574
  36   0.0000       0.089681         2.4403
  37   0.0000       0.098737         2.6868
  38   0.0000       0.116711         3.1759
  39   0.0000       0.160023         4.3545

MULLIKEN ATOMIC CHARGES
-----------------------
   0 O :   -0.346749
   1 H :    0.177154
   2 H :    0.225922
   3 O :   -0.378528
   4 H :    0.178686
   5 H :    0.210546
   6 O :   -0.337458
   7 H :    0.169840
   8 H :    0.225179
   9 O :   -0.373841
  10 H :    0.216572
  11 H :    0.181081
  12 O :   -0.382820
  13 H :    0.158732
  14 H :    0.188628
  15 O :   -0.400375
  16 H :    0.174979
  17 H :    0.168058
  18 O :   -0.391389
  19 H :    0.167869
  20 H :    0.167913
Sum of atomic charges:    0.0000000

LOEWDIN ATOMIC CHARGES
----------------------
   0 O :   -0.090023
   1 H :    0.044544
   2 H :    0.112117
   3 O :   -0.135283
   4 H :    0.039503
   5 H :    0.101727
   6 O :   -0.094970
   7 H :    0.055408
   8 H :    0.113378
   9 O :   -0.131819
  10 H :    0.100048
  11 H :    0.043187
  12 O :   -0.131275
  13 H :    0.033846
  14 H :    0.082993
  15 O :   -0.153689
  16 H :    0.035156
  17 H :    0.053221
  18 O :   -0.155426
  19 H :    0.040464
  20 H :    0.036892

  Mayer bond orders larger than 0.100000
B(  0-O ,  1-H ) :   0.8568 B(  0-O ,  2-H ) :   0.9615 B(  0-O ,  7-H ) :   0.1689
B(  0-O , 11-H ) :   0.1497 B(  1-H , 15-O ) :   0.2201 B(  3-O ,  4-H ) :   0.8803
B(  3-O ,  5-H ) :   0.9730 B(  3-O , 16-H ) :   0.2144 B(  4-H , 12-O ) :   0.1941
B(  6-O ,  7-H ) :   0.8880 B(  6-O ,  8-H ) :   0.9625 B(  6-O , 17-H ) :   0.1203
B(  6-O , 19-H ) :   0.1682 B(  9-O , 10-H ) :   0.9691 B(  9-O , 11-H ) :   0.9039
B(  9-O , 20-H ) :   0.1698 B( 12-O , 13-H ) :   0.8701 B( 12-O , 14-H ) :   0.9712
B( 13-H , 18-O ) :   0.2316 B( 15-O , 16-H ) :   0.8745 B( 15-O , 17-H ) :   0.9408
B( 18-O , 19-H ) :   0.9122 B( 18-O , 20-H ) :   0.9097

Dispersion correction           -0.010831279
FINAL SINGLE POINT ENERGY      -534.121709571807

DIPOLE MOMENT
-------------
                                X             Y             Z
Electronic contribution:      0.13961      -0.05213      -0.03707
Nuclear contribution   :      1.59136      -0.72260      -0.61818
                        -----------------------------------------
Total Dipole Moment    :      1.73097      -0.77473      -0.65525
                        -----------------------------------------
Magnitude (a.u.)       :      2.00645
Magnitude (Debye)      :      5.09998

Dispersion correction in the Hessian             ... done   (      1.0 sec)

VIBRATIONAL FREQUENCIES
-----------------------

Scaling factor for frequencies =  1.000000000  (already applied!)

   0:         0.00 cm**-1
   1:         0.00 cm**-1
   2:         0.00 cm**-1
   3:         0.00 cm**-1
   4:         0.00 cm**-1
   5:         0.00 cm**-1
   6:       -42.23 cm**-1 ***imaginary mode***
   7:       -21.89 cm**-1 ***imaginary mode***
   8:        43.97 cm**-1
   9:        50.05 cm**-1
  10:        56.53 cm**-1
  11:        79.81 cm**-1
  12:       121.59 cm**-1
  13:       172.45 cm**-1
  14:       192.03 cm**-1
  15:       204.98 cm**-1
  16:       219.16 cm**-1
  17:       240.08 cm**-1
  18:       244.53 cm**-1
  19:       252.15 cm**-1
  20:       268.85 cm**-1
  21:       271.46 cm**-1
  22:       302.72 cm**-1
  23:       312.36 cm**-1
  24:       331.60 cm**-1
  25:       340.05 cm**-1
  26:       363.60 cm**-1
  27:       412.80 cm**-1
  28:       430.15 cm**-1
  29:       468.99 cm**-1
  30:       543.49 cm**-1
  31:       566.49 cm**-1
  32:       597.37 cm**-1
  33:       640.34 cm**-1
  34:       670.15 cm**-1
  35:       761.15 cm**-1
  36:       779.40 cm**-1
  37:       807.66 cm**-1
  38:       879.71 cm**-1
  39:       940.61 cm**-1
  40:      1009.62 cm**-1
  41:      1044.32 cm**-1
  42:      1582.11 cm**-1
  43:      1607.19 cm**-1
  44:      1630.71 cm**-1
  45:      1645.85 cm**-1
  46:      1663.00 cm**-1
  47:      1671.70 cm**-1
  48:      1696.08 cm**-1
  49:      3159.83 cm**-1
  50:      3220.17 cm**-1
  51:      3279.95 cm**-1
  52:      3349.16 cm**-1
  53:      3446.11 cm**-1
  54:      3488.88 cm**-1
  55:      3516.63 cm**-1
  56:      3544.37 cm**-1
  57:      3702.79 cm**-1
  58:      3860.90 cm**-1
  59:      3868.62 cm**-1
  60:      3873.62 cm**-1
  61:      3877.14 cm**-1
  62:      3880.06 cm**-1

IR SPECTRUM
-----------

 Mode    freq (cm**-1)   T**2         TX         TY         TZ
-------------------------------------------------------------------
   8:        43.97   12.400379  ( -2.291799  -0.330264   2.653104)
   9:        50.05    7.892642  (  2.219210   1.603175   0.630538)
  10:        56.53   13.743579  ( -1.420784   2.452708   2.389388)
  11:        79.81    8.326731  ( -2.348648  -0.278246   1.653228)
  12:       121.59    2.159745  ( -0.160733   1.393546   0.438107)
  13:       172.45   49.212315  ( -3.037584  -0.735932   6.280430)
  14:       192.03   68.200236  ( -1.477554  -8.004334   1.395601)
  15:       204.98   45.930614  (  4.468121  -1.199830   4.952466)
  16:       219.16   24.552798  ( -4.597191   1.157262  -1.442004)
  17:       240.08   41.990214  ( -1.861768  -0.343537   6.197259)
  18:       244.53   29.840552  (  3.517417   3.038478   2.869840)
  19:       252.15   84.363431  ( -5.087557  -6.698009  -3.690103)
  20:       268.85  267.794660  (  4.091995 -11.722341 -10.660064)
  21:       271.46  169.001372  ( -7.079057 -10.516964  -2.877811)
  22:       302.72   77.375947  (  7.413099   2.003118   4.290621)
  23:       312.36  117.200707  (  8.287049   3.050397  -6.262635)
  24:       331.60   46.278293  (  6.183450   0.857663  -2.703268)
  25:       340.05   71.517043  (  8.130409  -0.698386   2.219404)
  26:       363.60  196.945114  (  5.609194  12.777891  -1.485789)
  27:       412.80  184.608071  ( -5.251170   8.887671  -8.834172)
  28:       430.15   59.344965  ( -4.264329   5.925215  -2.460141)
  29:       468.99   61.554084  (  2.601547   2.780740   6.859557)
  30:       543.49   53.400744  ( -5.948493   2.185190   3.638834)
  31:       566.49  125.948965  (  4.104444   8.970829  -5.350395)
  32:       597.37  183.665735  (  1.428330   9.797912   9.253461)
  33:       640.34  205.505885  (  6.105758  10.649957   7.402975)
  34:       670.15   38.051262  ( -1.516095   5.925373  -0.801670)
  35:       761.15  369.550239  (  3.977521  -8.621209  16.715392)
  36:       779.40  244.086545  ( 14.603059   2.628182  -4.891816)
  37:       807.66  198.761059  (  2.219129  13.922476   0.034442)
  38:       879.71  359.396435  ( -6.739811   2.640195  17.521437)
  39:       940.61  293.581666  ( -8.532876  -8.946340 -11.863166)
  40:      1009.62   68.426035  (  7.479322  -1.272820  -3.296316)
  41:      1044.32  100.570327  (  4.701689   7.980655  -3.843642)
  42:      1582.11  162.030679  (  0.708322  -0.834906 -12.681951)
  43:      1607.19   58.983235  ( -5.555065   5.105931  -1.433161)
  44:      1630.71  163.917071  ( 12.420790  -2.985379  -0.853556)
  45:      1645.85  150.168954  (  6.926120  -7.146043   7.150656)
  46:      1663.00   16.593612  ( -3.125833   2.188811  -1.425441)
  47:      1671.70   96.340680  ( -4.908091   4.675088   7.098935)
  48:      1696.08  127.324559  ( -9.906197   4.850621  -2.379769)
  49:      3159.83  884.248292  ( 15.199655 -20.286292 -15.546226)
  50:      3220.17  2356.191778  ( -3.531210 -17.297451 -45.216375)
  51:      3279.95  1629.715648  (-38.171593  -8.987952   9.584459)
  52:      3349.16  434.895278  (  4.382443  17.322117  10.753313)
  53:      3446.11  261.952113  ( -8.391609  10.681106  -8.800397)
  54:      3488.88  1068.252581  ( 13.804304 -27.733405  10.418829)
  55:      3516.63  1605.639821  (-31.898292 -20.918844 -12.269507)
  56:      3544.37  453.098276  (  0.739924  20.966694  -3.598405)
  57:      3702.79  488.331916  ( -2.207488  -7.678506  20.603385)
  58:      3860.90  140.930671  (  0.783604 -11.827119   0.660230)
  59:      3868.62   79.292989  ( -4.705406   7.328290  -1.856964)
  60:      3873.62  135.664219  (  9.901073  -6.040356  -1.071009)
  61:      3877.14  175.721504  ( -8.069860  -9.282534   4.943020)
  62:      3880.06  121.718481  ( -5.922990  -3.051210   8.793565)

--------------------------
THERMOCHEMISTRY AT 298.15K
--------------------------

Temperature         ... 298.15 K
Pressure            ... 1.00 atm
Total Mass          ... 126.10 AMU

Throughout the following assumptions are being made:
  (1) The electronic state is orbitally nondegenerate
  (2) There are no thermally accessible electronically excited states
  (3) Hindered rotations indicated by low frequency modes are not
      treated as such but are treated as vibrations and this may
      cause some error
  (4) All equations used are the standard statistical mechanics
      equations for an ideal gas
  (5) All vibrations are strictly harmonic

freq.      43.97  E(vib)   ...       0.53
freq.      50.05  E(vib)   ...       0.52
freq.      56.53  E(vib)   ...       0.52
freq.      79.81  E(vib)   ...       0.49
freq.     121.59  E(vib)   ...       0.44
freq.     172.45  E(vib)   ...       0.38
freq.     192.03  E(vib)   ...       0.36
freq.     204.98  E(vib)   ...       0.35
freq.     219.16  E(vib)   ...       0.33
freq.     240.08  E(vib)   ...       0.31
freq.     244.53  E(vib)   ...       0.31
freq.     252.15  E(vib)   ...       0.30
freq.     268.85  E(vib)   ...       0.29
freq.     271.46  E(vib)   ...       0.29
freq.     302.72  E(vib)   ...       0.26
freq.     312.36  E(vib)   ...       0.25
freq.     331.60  E(vib)   ...       0.24
freq.     340.05  E(vib)   ...       0.23
freq.     363.60  E(vib)   ...       0.22
freq.     412.80  E(vib)   ...       0.19
freq.     430.15  E(vib)   ...       0.18
freq.     468.99  E(vib)   ...       0.16
freq.     543.49  E(vib)   ...       0.12
freq.     566.49  E(vib)   ...       0.11
freq.     597.37  E(vib)   ...       0.10
freq.     640.34  E(vib)   ...       0.09
freq.     670.15  E(vib)   ...       0.08
freq.     761.15  E(vib)   ...       0.06
freq.     779.40  E(vib)   ...       0.05
freq.     807.66  E(vib)   ...       0.05
freq.     879.71  E(vib)   ...       0.04
freq.     940.61  E(vib)   ...       0.03
freq.    1009.62  E(vib)   ...       0.02
freq.    1044.32  E(vib)   ...       0.02
freq.    1582.11  E(vib)   ...       0.00
freq.    1607.19  E(vib)   ...       0.00
freq.    1630.71  E(vib)   ...       0.00
freq.    1645.85  E(vib)   ...       0.00
freq.    1663.00  E(vib)   ...       0.00
freq.    1671.70  E(vib)   ...       0.00
freq.    1696.08  E(vib)   ...       0.00
freq.    3159.83  E(vib)   ...       0.00
freq.    3220.17  E(vib)   ...       0.00
freq.    3279.95  E(vib)   ...       0.00
freq.    3349.16  E(vib)   ...       0.00
freq.    3446.11  E(vib)   ...       0.00
freq.    3488.88  E(vib)   ...       0.00
freq.    3516.63  E(vib)   ...       0.00
freq.    3544.37  E(vib)   ...       0.00
freq.    3702.79  E(vib)   ...       0.00
freq.    3860.90  E(vib)   ...       0.00
freq.    3868.62  E(vib)   ...       0.00
freq.    3873.62  E(vib)   ...       0.00
freq.    3877.14  E(vib)   ...       0.00
freq.    3880.06  E(vib)   ...       0.00

------------
INNER ENERGY
------------

The inner energy is: U= E(el) + E(ZPE) + E(vib) + E(rot) + E(trans)
    E(el)   - is the total energy from the electronic structure calculation
              = E(kin-el) + E(nuc-el) + E(el-el) + E(nuc-nuc)
    E(ZPE)  - the the zero temperature vibrational energy from the frequency calculation
    E(vib)  - the the finite temperature correction to E(ZPE) due to population
              of excited vibrational states
    E(rot)  - is the rotational thermal energy
    E(trans)- is the translational thermal energy

Summary of contributions to the inner energy U:
Electronic energy                ...   -534.12170957 Eh
Zero point energy                ...      0.17356244 Eh     108.91 kcal/mol
Thermal vibrational correction   ...      0.01262035 Eh       7.92 kcal/mol
Thermal rotational correction    ...      0.00141627 Eh       0.89 kcal/mol
Thermal translational correction ...      0.00141627 Eh       0.89 kcal/mol
-----------------------------------------------------------------------
Total thermal energy                   -533.93269423 Eh

Summary of corrections to the electronic energy:
(perhaps to be used in another calculation)
Total thermal correction                  0.01545290 Eh       9.70 kcal/mol
Non-thermal (ZPE) correction              0.17356244 Eh     108.91 kcal/mol
-----------------------------------------------------------------------
Total correction                          0.18901534 Eh     118.61 kcal/mol

--------
ENTHALPY
--------

The enthalpy is H = U + kB*T
                kB is Boltzmann's constant
Total free energy                 ...   -533.93269423 Eh
Thermal Enthalpy correction       ...      0.00094421 Eh       0.59 kcal/mol
-----------------------------------------------------------------------
Total Enthalpy                    ...   -533.93175002 Eh

Note: Only C1 symmetry has been detected, increase convergence thresholds
      if your molecule has a higher symmetry. Symmetry factor of 1.0 is
      used for the rotational entropy correction.

Note: Rotational entropy computed according to Herzberg
Infrared and Raman Spectra, Chapter V,1, Van Nostrand Reinhold, 1945
Point Group:  C1, Symmetry Number:   1
Rotational constants in cm-1:     0.045091     0.035498     0.028603

Vibrational entropy computed according to the QRRHO of S. Grimme
Chem.Eur.J. 2012 18 9955

-------
ENTROPY
-------

The entropy contributions are T*S = T*(S(el)+S(vib)+S(rot)+S(trans))
     S(el)   - electronic entropy
     S(vib)  - vibrational entropy
     S(rot)  - rotational entropy
     S(trans)- translational entropy
The entropies will be listed as mutliplied by the temperature to get
units of energy

Electronic entropy                ...      0.00000000 Eh      0.00 kcal/mol
Vibrational entropy               ...      0.02212575 Eh     13.88 kcal/mol
Rotational entropy                ...      0.01422775 Eh      8.93 kcal/mol
Translational entropy             ...      0.01919974 Eh     12.05 kcal/mol
-----------------------------------------------------------------------
Final entropy term                ...      0.05555324 Eh     34.86 kcal/mol

In case the symmetry of your molecule has not been determined correctly
or in case you have a reason to use a different symmetry number we print
out the resulting rotational entropy values for sn=1,12 :
 --------------------------------------------------------
|  sn= 1 | S(rot)=       0.01422775 Eh      8.93 kcal/mol|
|  sn= 2 | S(rot)=       0.01357329 Eh      8.52 kcal/mol|
|  sn= 3 | S(rot)=       0.01319046 Eh      8.28 kcal/mol|
|  sn= 4 | S(rot)=       0.01291883 Eh      8.11 kcal/mol|
|  sn= 5 | S(rot)=       0.01270815 Eh      7.97 kcal/mol|
|  sn= 6 | S(rot)=       0.01253600 Eh      7.87 kcal/mol|
|  sn= 7 | S(rot)=       0.01239046 Eh      7.78 kcal/mol|
|  sn= 8 | S(rot)=       0.01226438 Eh      7.70 kcal/mol|

                             ****ORCA TERMINATED NORMALLY****
TOTAL RUN TIME: 0 days 0 hours 21 minutes 19 seconds 843 msec
